<?xml version="1.0"?>
<VTKFile type="UnstructuredGrid"  version="0.1"  >
<UnstructuredGrid>
<Piece  NumberOfPoints="961" NumberOfCells="1800">
<Points>
<DataArray  type="Float64"  NumberOfComponents="3"  format="ascii">-2 -2 0  -1.866666666666667 -2 0  -1.733333333333333 -2 0  -1.6 -2 0  -1.466666666666667 -2 0  -1.333333333333333 -2 0  -1.2 -2 0  -1.066666666666667 -2 0  -0.9333333333333333 -2 0  -0.8 -2 0  -0.6666666666666667 -2 0  -0.5333333333333334 -2 0  -0.3999999999999999 -2 0  -0.2666666666666666 -2 0  -0.1333333333333333 -2 0  0 -2 0  0.1333333333333333 -2 0  0.2666666666666666 -2 0  0.3999999999999999 -2 0  0.5333333333333332 -2 0  0.6666666666666665 -2 0  0.7999999999999998 -2 0  0.9333333333333331 -2 0  1.066666666666667 -2 0  1.2 -2 0  1.333333333333333 -2 0  1.466666666666667 -2 0  1.6 -2 0  1.733333333333333 -2 0  1.866666666666667 -2 0  2 -2 0  -2 -1.866666666666667 0  -1.866666666666667 -1.866666666666667 0  -1.733333333333333 -1.866666666666667 0  -1.6 -1.866666666666667 0  -1.466666666666667 -1.866666666666667 0  -1.333333333333333 -1.866666666666667 0  -1.2 -1.866666666666667 0  -1.066666666666667 -1.866666666666667 0  -0.9333333333333333 -1.866666666666667 0  -0.8 -1.866666666666667 0  -0.6666666666666667 -1.866666666666667 0  -0.5333333333333334 -1.866666666666667 0  -0.3999999999999999 -1.866666666666667 0  -0.2666666666666666 -1.866666666666667 0  -0.1333333333333333 -1.866666666666667 0  0 -1.866666666666667 0  0.1333333333333333 -1.866666666666667 0  0.2666666666666666 -1.866666666666667 0  0.3999999999999999 -1.866666666666667 0  0.5333333333333332 -1.866666666666667 0  0.6666666666666665 -1.866666666666667 0  0.7999999999999998 -1.866666666666667 0  0.9333333333333331 -1.866666666666667 0  1.066666666666667 -1.866666666666667 0  1.2 -1.866666666666667 0  1.333333333333333 -1.866666666666667 0  1.466666666666667 -1.866666666666667 0  1.6 -1.866666666666667 0  1.733333333333333 -1.866666666666667 0  1.866666666666667 -1.866666666666667 0  2 -1.866666666666667 0  -2 -1.733333333333333 0  -1.866666666666667 -1.733333333333333 0  -1.733333333333333 -1.733333333333333 0  -1.6 -1.733333333333333 0  -1.466666666666667 -1.733333333333333 0  -1.333333333333333 -1.733333333333333 0  -1.2 -1.733333333333333 0  -1.066666666666667 -1.733333333333333 0  -0.9333333333333333 -1.733333333333333 0  -0.8 -1.733333333333333 0  -0.6666666666666667 -1.733333333333333 0  -0.5333333333333334 -1.733333333333333 0  -0.3999999999999999 -1.733333333333333 0  -0.2666666666666666 -1.733333333333333 0  -0.1333333333333333 -1.733333333333333 0  0 -1.733333333333333 0  0.1333333333333333 -1.733333333333333 0  0.2666666666666666 -1.733333333333333 0  0.3999999999999999 -1.733333333333333 0  0.5333333333333332 -1.733333333333333 0  0.6666666666666665 -1.733333333333333 0  0.7999999999999998 -1.733333333333333 0  0.9333333333333331 -1.733333333333333 0  1.066666666666667 -1.733333333333333 0  1.2 -1.733333333333333 0  1.333333333333333 -1.733333333333333 0  1.466666666666667 -1.733333333333333 0  1.6 -1.733333333333333 0  1.733333333333333 -1.733333333333333 0  1.866666666666667 -1.733333333333333 0  2 -1.733333333333333 0  -2 -1.6 0  -1.866666666666667 -1.6 0  -1.733333333333333 -1.6 0  -1.6 -1.6 0  -1.466666666666667 -1.6 0  -1.333333333333333 -1.6 0  -1.2 -1.6 0  -1.066666666666667 -1.6 0  -0.9333333333333333 -1.6 0  -0.8 -1.6 0  -0.6666666666666667 -1.6 0  -0.5333333333333334 -1.6 0  -0.3999999999999999 -1.6 0  -0.2666666666666666 -1.6 0  -0.1333333333333333 -1.6 0  0 -1.6 0  0.1333333333333333 -1.6 0  0.2666666666666666 -1.6 0  0.3999999999999999 -1.6 0  0.5333333333333332 -1.6 0  0.6666666666666665 -1.6 0  0.7999999999999998 -1.6 0  0.9333333333333331 -1.6 0  1.066666666666667 -1.6 0  1.2 -1.6 0  1.333333333333333 -1.6 0  1.466666666666667 -1.6 0  1.6 -1.6 0  1.733333333333333 -1.6 0  1.866666666666667 -1.6 0  2 -1.6 0  -2 -1.466666666666667 0  -1.866666666666667 -1.466666666666667 0  -1.733333333333333 -1.466666666666667 0  -1.6 -1.466666666666667 0  -1.466666666666667 -1.466666666666667 0  -1.333333333333333 -1.466666666666667 0  -1.2 -1.466666666666667 0  -1.066666666666667 -1.466666666666667 0  -0.9333333333333333 -1.466666666666667 0  -0.8 -1.466666666666667 0  -0.6666666666666667 -1.466666666666667 0  -0.5333333333333334 -1.466666666666667 0  -0.3999999999999999 -1.466666666666667 0  -0.2666666666666666 -1.466666666666667 0  -0.1333333333333333 -1.466666666666667 0  0 -1.466666666666667 0  0.1333333333333333 -1.466666666666667 0  0.2666666666666666 -1.466666666666667 0  0.3999999999999999 -1.466666666666667 0  0.5333333333333332 -1.466666666666667 0  0.6666666666666665 -1.466666666666667 0  0.7999999999999998 -1.466666666666667 0  0.9333333333333331 -1.466666666666667 0  1.066666666666667 -1.466666666666667 0  1.2 -1.466666666666667 0  1.333333333333333 -1.466666666666667 0  1.466666666666667 -1.466666666666667 0  1.6 -1.466666666666667 0  1.733333333333333 -1.466666666666667 0  1.866666666666667 -1.466666666666667 0  2 -1.466666666666667 0  -2 -1.333333333333333 0  -1.866666666666667 -1.333333333333333 0  -1.733333333333333 -1.333333333333333 0  -1.6 -1.333333333333333 0  -1.466666666666667 -1.333333333333333 0  -1.333333333333333 -1.333333333333333 0  -1.2 -1.333333333333333 0  -1.066666666666667 -1.333333333333333 0  -0.9333333333333333 -1.333333333333333 0  -0.8 -1.333333333333333 0  -0.6666666666666667 -1.333333333333333 0  -0.5333333333333334 -1.333333333333333 0  -0.3999999999999999 -1.333333333333333 0  -0.2666666666666666 -1.333333333333333 0  -0.1333333333333333 -1.333333333333333 0  0 -1.333333333333333 0  0.1333333333333333 -1.333333333333333 0  0.2666666666666666 -1.333333333333333 0  0.3999999999999999 -1.333333333333333 0  0.5333333333333332 -1.333333333333333 0  0.6666666666666665 -1.333333333333333 0  0.7999999999999998 -1.333333333333333 0  0.9333333333333331 -1.333333333333333 0  1.066666666666667 -1.333333333333333 0  1.2 -1.333333333333333 0  1.333333333333333 -1.333333333333333 0  1.466666666666667 -1.333333333333333 0  1.6 -1.333333333333333 0  1.733333333333333 -1.333333333333333 0  1.866666666666667 -1.333333333333333 0  2 -1.333333333333333 0  -2 -1.2 0  -1.866666666666667 -1.2 0  -1.733333333333333 -1.2 0  -1.6 -1.2 0  -1.466666666666667 -1.2 0  -1.333333333333333 -1.2 0  -1.2 -1.2 0  -1.066666666666667 -1.2 0  -0.9333333333333333 -1.2 0  -0.8 -1.2 0  -0.6666666666666667 -1.2 0  -0.5333333333333334 -1.2 0  -0.3999999999999999 -1.2 0  -0.2666666666666666 -1.2 0  -0.1333333333333333 -1.2 0  0 -1.2 0  0.1333333333333333 -1.2 0  0.2666666666666666 -1.2 0  0.3999999999999999 -1.2 0  0.5333333333333332 -1.2 0  0.6666666666666665 -1.2 0  0.7999999999999998 -1.2 0  0.9333333333333331 -1.2 0  1.066666666666667 -1.2 0  1.2 -1.2 0  1.333333333333333 -1.2 0  1.466666666666667 -1.2 0  1.6 -1.2 0  1.733333333333333 -1.2 0  1.866666666666667 -1.2 0  2 -1.2 0  -2 -1.066666666666667 0  -1.866666666666667 -1.066666666666667 0  -1.733333333333333 -1.066666666666667 0  -1.6 -1.066666666666667 0  -1.466666666666667 -1.066666666666667 0  -1.333333333333333 -1.066666666666667 0  -1.2 -1.066666666666667 0  -1.066666666666667 -1.066666666666667 0  -0.9333333333333333 -1.066666666666667 0  -0.8 -1.066666666666667 0  -0.6666666666666667 -1.066666666666667 0  -0.5333333333333334 -1.066666666666667 0  -0.3999999999999999 -1.066666666666667 0  -0.2666666666666666 -1.066666666666667 0  -0.1333333333333333 -1.066666666666667 0  0 -1.066666666666667 0  0.1333333333333333 -1.066666666666667 0  0.2666666666666666 -1.066666666666667 0  0.3999999999999999 -1.066666666666667 0  0.5333333333333332 -1.066666666666667 0  0.6666666666666665 -1.066666666666667 0  0.7999999999999998 -1.066666666666667 0  0.9333333333333331 -1.066666666666667 0  1.066666666666667 -1.066666666666667 0  1.2 -1.066666666666667 0  1.333333333333333 -1.066666666666667 0  1.466666666666667 -1.066666666666667 0  1.6 -1.066666666666667 0  1.733333333333333 -1.066666666666667 0  1.866666666666667 -1.066666666666667 0  2 -1.066666666666667 0  -2 -0.9333333333333333 0  -1.866666666666667 -0.9333333333333333 0  -1.733333333333333 -0.9333333333333333 0  -1.6 -0.9333333333333333 0  -1.466666666666667 -0.9333333333333333 0  -1.333333333333333 -0.9333333333333333 0  -1.2 -0.9333333333333333 0  -1.066666666666667 -0.9333333333333333 0  -0.9333333333333333 -0.9333333333333333 0  -0.8 -0.9333333333333333 0  -0.6666666666666667 -0.9333333333333333 0  -0.5333333333333334 -0.9333333333333333 0  -0.3999999999999999 -0.9333333333333333 0  -0.2666666666666666 -0.9333333333333333 0  -0.1333333333333333 -0.9333333333333333 0  0 -0.9333333333333333 0  0.1333333333333333 -0.9333333333333333 0  0.2666666666666666 -0.9333333333333333 0  0.3999999999999999 -0.9333333333333333 0  0.5333333333333332 -0.9333333333333333 0  0.6666666666666665 -0.9333333333333333 0  0.7999999999999998 -0.9333333333333333 0  0.9333333333333331 -0.9333333333333333 0  1.066666666666667 -0.9333333333333333 0  1.2 -0.9333333333333333 0  1.333333333333333 -0.9333333333333333 0  1.466666666666667 -0.9333333333333333 0  1.6 -0.9333333333333333 0  1.733333333333333 -0.9333333333333333 0  1.866666666666667 -0.9333333333333333 0  2 -0.9333333333333333 0  -2 -0.8 0  -1.866666666666667 -0.8 0  -1.733333333333333 -0.8 0  -1.6 -0.8 0  -1.466666666666667 -0.8 0  -1.333333333333333 -0.8 0  -1.2 -0.8 0  -1.066666666666667 -0.8 0  -0.9333333333333333 -0.8 0  -0.8 -0.8 0  -0.6666666666666667 -0.8 0  -0.5333333333333334 -0.8 0  -0.3999999999999999 -0.8 0  -0.2666666666666666 -0.8 0  -0.1333333333333333 -0.8 0  0 -0.8 0  0.1333333333333333 -0.8 0  0.2666666666666666 -0.8 0  0.3999999999999999 -0.8 0  0.5333333333333332 -0.8 0  0.6666666666666665 -0.8 0  0.7999999999999998 -0.8 0  0.9333333333333331 -0.8 0  1.066666666666667 -0.8 0  1.2 -0.8 0  1.333333333333333 -0.8 0  1.466666666666667 -0.8 0  1.6 -0.8 0  1.733333333333333 -0.8 0  1.866666666666667 -0.8 0  2 -0.8 0  -2 -0.6666666666666667 0  -1.866666666666667 -0.
[...]
<PointData  Scalars="f_12"> 
<DataArray  type="Float64"  Name="f_12"  format="ascii">0.0000000000000000e+00  0.0000000000000000e+00  0.0000000000000000e+00  0.0000000000000000e+00  0.0000000000000000e+00  0.0000000000000000e+00  0.0000000000000000e+00  0.0000000000000000e+00  0.0000000000000000e+00  0.0000000000000000e+00  0.0000000000000000e+00  0.0000000000000000e+00  0.0000000000000000e+00  0.0000000000000000e+00  0.0000000000000000e+00  0.0000000000000000e+00  0.0000000000000000e+00  0.0000000000000000e+00  0.0000000000000000e+00  0.0000000000000000e+00  0.0000000000000000e+00  0.0000000000000000e+00  0.0000000000000000e+00  0.0000000000000000e+00  0.0000000000000000e+00  0.0000000000000000e+00  0.0000000000000000e+00  0.0000000000000000e+00  0.0000000000000000e+00  0.0000000000000000e+00  0.0000000000000000e+00  0.0000000000000000e+00  2.3402311933524539e-04  4.6510897484750989e-04  6.9093150893656898e-04  9.0912617422300290e-04  1.1173654157520395e-03  1.3134012645614418e-03  1.4950972163834382e-03  1.6604560825903517e-03  1.8076458420412558e-03  1.9350239355848298e-03  2.0411598248323078e-03  2.1248553708103040e-03  2.1851624841581372e-03  2.2213974904181080e-03  2.2331517141953592e-03  2.2202978982249211e-03  2.1829922235217267e-03  2.1216718701793191e-03  2.0370482397694713e-03  1.9300961346997104e-03  1.8020393440422479e-03  1.6543332095182710e-03  1.4886448357616408e-03  1.3068316722078190e-03  1.1109192564843055e-03  9.0307904469608439e-04  6.8560766811191895e-04  4.6091027393927158e-04  2.3149492555448562e-04  0.0000000000000000e+00  0.0000000000000000e+00  4.6510897484750989e-04  9.2463591194954164e-04  1.3737888107196682e-03  1.8078118054317706e-03  2.2220560148922767e-03  2.6120418649803654e-03  2.9735155253675979e-03  3.3025018896722731e-03  3.5953550612712712e-03  3.8488062778497139e-03  4.0600086010661590e-03  4.2265773692845279e-03  4.3466252743507667e-03  4.4187909333798315e-03  4.4422599566840623e-03  4.4167777405332235e-03  4.3426535138413862e-03  4.2207555134457109e-03  4.0524975235315666e-03  3.8398173611668600e-03  3.5851481949364600e-03  3.2913838265333844e-03  2.9618392348363430e-03  2.6002077818830702e-03  2.2105165354886248e-03  1.7970812346866216e-03  1.3644626303486616e-03  9.1742646337995262e-04  4.6091027393927180e-04  0.0000000000000000e+00  0.0000000000000000e+00  6.9093150893656888e-04  1.3737888107196682e-03  2.0413426841725639e-03  2.6864727605169529e-03  3.3022439895897355e-03  3.8819850035294238e-03  4.4193655399404575e-03  4.9084722650956274e-03  5.3438824474258987e-03  5.7207345261091128e-03  6.0347942041940605e-03  6.2825144126132269e-03  6.4610873752060623e-03  6.5684870578071441e-03  6.6035004949309365e-03  6.5657468335360777e-03  6.4556833833498174e-03  6.2745984783118512e-03  6.0245914903098432e-03  5.7085408502199810e-03  5.3300613815189246e-03  4.8934526053339856e-03  4.4036399113459510e-03  3.8661105998880128e-03  3.2868467967147605e-03  2.6722571461250118e-03  2.0291090160360513e-03  1.3644626303486618e-03  6.8560766811191906e-04  0.0000000000000000e+00  0.0000000000000000e+00  9.0912617422300246e-04  1.8078118054317700e-03  2.6864727605169524e-03  3.5356940135028588e-03  4.3463214599830224e-03  5.1095579547307248e-03  5.8170608315385895e-03  6.4610392210285427e-03  7.0343496534884201e-03  7.5305881935512319e-03  7.9441770269975814e-03  8.2704431750668314e-03  8.5056869264719583e-03  8.6472376817345493e-03  8.6934951990462004e-03  8.6439546950038519e-03  8.4992148501888722e-03  8.2609684494556034e-03  7.9319760934798179e-03  7.5160240932483809e-03  7.0178682481516945e-03  6.4431656655522954e-03  5.7983970727168059e-03  5.0907821838607021e-03  4.3281906130998200e-03  3.5190505719788117e-03  2.6722571461250118e-03  1.7970812346866220e-03  9.0307904469608461e-04  0.0000000000000000e+00  0.0000000000000000e+00  1.1173654157520389e-03  2.2220560148922762e-03  3.3022439895897338e-03  4.3463214599830232e-03  5.3430113848763226e-03  6.2814826049060754e-03  7.1514672114094818e-03  7.9433784348443854e-03  8.6484270514825996e-03  9.2587339597253390e-03  9.7674362188507700e-03  1.0168783591751916e-02  1.0458222564713142e-02  1.0632464968272394e-02  1.0689538698508342e-02  1.0628818615987490e-02  1.0451036436972722e-02  1.0158269269230635e-02  9.7539073140431240e-03  9.2426020850693187e-03  8.6301972157286355e-03  7.9236444822683161e-03  7.1309080173176942e-03  6.2608598040410964e-03  5.3231694166225550e-03  4.3281906130998218e-03  3.2868467967147614e-03  2.2105165354886257e-03  1.1109192564843057e-03  0.0000000000000000e+00  0.0000000000000000e+00  1.3134012645614394e-03  2.6120418649803611e-03  3.8819850035294199e-03  5.1095579547307222e-03  6.2814826049060728e-03  7.3850096528115146e-03  8.4080553232508733e-03  9.3393388766707594e-03  1.0168518658273630e-02  1.0886323900459046e-02  1.1484679040281517e-02  1.1956817020860270e-02  1.2297377975734559e-02  1.2502489882468661e-02  1.2569828220007214e-02  1.2498652348140304e-02  1.2289817196999358e-02  1.1945759840895088e-02  1.1470461553392597e-02  1.0869386914881103e-02  1.0149402389950848e-02  9.3186774413291616e-03  8.3865716493864411e-03  7.3635114321935983e-03  6.2608598040410947e-03  5.0907821838607013e-03  3.8661105998880107e-03  2.6002077818830702e-03  1.3068316722078194e-03  0.0000000000000000e+00  0.0000000000000000e+00  1.4950972163834363e-03  2.9735155253675927e-03  4.4193655399404549e-03  5.8170608315385843e-03  7.1514672114094740e-03  8.4080553232508716e-03  9.5730557383537744e-03  1.0633614903835364e-02  1.1577949514916164e-02  1.2395496182487748e-02  1.3077052707428254e-02  1.3614906923009044e-02  1.4002948982941264e-02  1.4236763186281526e-02  1.4313695942223750e-02  1.4232897257847840e-02  1.3995334123062484e-02  1.3603775290906931e-02  1.3062748116307379e-02  1.2378469226147368e-02  1.1558751756762801e-02  1.0612892633781746e-02  9.5515438261711150e-03  8.3865716493864359e-03  7.1309080173176925e-03  5.7983970727168016e-03  4.4036399113459466e-03  2.9618392348363413e-03  1.4886448357616406e-03  0.0000000000000000e+00  0.0000000000000000e+00  1.6604560825903504e-03  3.3025018896722718e-03  4.9084722650956274e-03  6.4610392210285401e-03  7.9433784348443785e-03  9.3393388766707542e-03  1.0633614903835360e-02  1.1811919180526409e-02  1.2861153842364706e-02  1.3769576489592308e-02  1.4526956933658946e-02  1.5124720212708153e-02  1.5556071288167791e-02  1.5816097067142258e-02  1.5901841961582834e-02  1.5812354060724676e-02  1.5548700094025161e-02  1.5113948610569652e-02  1.4513122095619117e-02  1.3753119978765488e-02  1.2842615559525488e-02  1.1791930698665477e-02  1.0612892633781748e-02  9.3186774413291616e-03  7.9236444822683109e-03  6.4431656655522928e-03  4.8934526053339830e-03  3.2913838265333831e-03  1.6543332095182704e-03  0.0000000000000000e+00  0.0000000000000000e+00  1.8076458420412550e-03  3.5953550612712690e-03  5.3438824474258970e-03  7.0343496534884175e-03  8.6484270514825892e-03  1.0168518658273624e-02  1.1577949514916164e-02  1.2861153842364706e-02  1.4003861248363520e-02  1.4993277319211790e-02  1.5818254187526679e-02  1.6469446204037317e-02  1.6939445717734217e-02  1.7222894214838257e-02  1.7316564679333561e-02  1.7219411977674435e-02  1.6932589267556340e-02  1.6459429790093960e-02  1.5805394815186641e-02  1.4977989854810915e-02  1.3986652427921426e-02  1.2842615559525514e-02  1.1558751756762823e-02  1.0149402389950863e-02  8.6301972157286442e-03  7.0178682481517067e-03  5.3300613815189333e-03  3.5851481949364669e-03  1.8020393440422514e-03  0.0000000000000000e+00  0.0000000000000000e+00  1.9350239355848270e-03  3.8488062778497104e-03  5.7207345261091076e-03  7.5305881935512232e-03  9.2587339597253251e-03  1.0886323900459044e-02  1.2395496182487750e-02  1.3769576489592317e-02  1.4993277319211795e-02  1.6052891266469332e-02  1.6936473602131710e-02  1.7634008942137226e-02  1.8137556663822867e-02  1.8441369980169778e-02  1.8541984233768745e-02  1.8438270975086709e-02  1.8131455669590339e-02  1.7625098333232472e-02  1.6925037906586751e-02  1.6039302619767763e-02  1.4977989854810941e-02  1.3753119978765542e-02  1.2378469226147418e-02  1.0869386914881140e-02  9.2426020850693413e-03  7.5160240932484008e-03  5.7085408502199992e-03  3.8398173611668726e-03  1.9300961346997169e-03  0.0000000000000000e+00  0.0000000000000000e+00  2.0411598248323056e-03  4.0600086010661547e-03  6.0347942041940536e-03  7.9441770269975728e-03  9.7674362188507613e-03  1.1484679040281515e-02  1.3077052707428250e-02  1.4526956933658949e-02  1.5818254187526689e-02  1.6936473602131717e-02  1.7869003607008178e-02  1.8605267807485840e-02  1.9136878477829623e-02  1.9457762297895587e-02  1.9564253643922152e-02  1.9455151798389629e-02  1.9131739792045785e-02  1.8597764125432441e-02  1.7859376211811176e-02  1.6925037906586789e-02  1.5805394815186696e-02  1.4513122095619189e-02  1.3062748116307457e-02  1.1470461553392642e-02  9.7539073140431587e-03  7.9319760934798474e-03  6.0245914903098675e-03  4.0524975235315848e-03  2.0370482397694812e-03  0.0000000000000000e+00  0.0000000000000000e+00  2.1248553708103001e-03  4.2265773692845192e-03  6.2825144126132122e-03  8.2704431750668141e-03  1.0168783591751895e-02  1.1956817020860256e-02  1.3614906923009042e-02  1.5124720212708147e-02  1.6469446204037314e-02  1.7634008942137219e-02  1.8605267807485837e-02  1.9372200704728899e-02  1.9926063975941266e-02  2.0260523446355778e-02  2.0371751714407058e-02  2.0258487891830174e-02  1.9922057400812754e-02  1.9366351031685741e-02  1.8597764125432441e-02  1.7625098333232499e-02  1.6459429790094009e-02  1.5113948610569727e-02  1.3603775290906998e-02  1.1945759840895133e-02  1.0158269269230661e-02  8.2609684494556312e-03  6.2745984783118764e-03  4.2207555134457283e-03  2.1216718701793291e-03  0.0000000000000000e+00  0.0000000000000000e+00  2.1851624841581320e-03  4.3466252743507572e-03  6.4610873752060450e-03  8.5056869264719340e-03  1.0458222564713114e-02  1.2297377975734540e-02  1.4002948982941264e-02  1.5556071288167791e-02  1.6939445717734217e-02  1.8137556663822847e-02  1.9136878477829609e-02  1.9926063975941270e-02  2.0496109034872180e-02  2.0840487526045014e-02  2.0955251555569317e-02  2.0839093098688914e-02  2.0493364556130950e-02  1.9922057400812744e-02  1.9131739792045771e-02  1.8131455669590350e-02  1.6932589267556378e-02  1.5548700094025229e-02  1.3995334123062539e-02  1.2289817196999396e-02  1.0451036436972752e-02  8.4992148501888999e-03  6.4556833833498391e-03  4.3426535138414019e-03  2.1829922235217358e-03  0.0000000000000000e+00  0.0000000000000000e+00  2.2213974904181028e-03  4.4187909333798202e-03  6.5684870578071215e-03  8.6472376817345233e-03  1.0632464968272368e-02  1.2502489882468640e-02  1.4236763186281511e-02  1.5816097067142244e-02  1.7222894214838254e-02  1.8441369980169757e-02  1.9457762297895555e-02  2.0260523446355760e-02  2.0840487526045001e-02  2.1191007809299053e-02  2.1308058839753299e-02  2.1190299296565730e-02  2.0839093098688900e-02  2.0258487891830150e-02  1.9455151798389601e-02  1.8438270975086719e-02  1.7219411977674470e-02  1.5812354060724742e-02  1.4232897257847899e-02  1.2498652348140347e-02  1.0628818615987523e-02  8.6439546950038797e-03  6.5657468335360977e-03  4.4167777405332382e-03  2.2202978982249297e-03  0.0000000000000000e+00  0.0000000000000000e+00  2.2331517141953522e-03  4.4422599566840476e-03  6.6035004949309105e-03  8.6934951990461674e-03  1.0689538698508307e-02  1.2569828220007191e-02  1.4313695942223731e-02  1.5901841961582806e-02  1.7316564679333530e-02  1.8541984233768710e-02  1.9564253643922100e-02  2.0371751714407027e-02  2.0955251555569286e-02  2.1308058839753279e-02  2.1426114640435732e-02  2.1308058839753282e-02  2.0955251555569293e-02  2.0371751714407027e-02  1.9564253643922128e-02  1.8541984233768755e-02  1.7316564679333599e-02  1.5901841961582900e-02  1.4313695942223809e-02  1.2569828220007257e-02  1.0689538698508373e-02  8.6934951990462264e-03  6.6035004949309530e-03  4.4422599566840762e-03  2.2331517141953674e-03  0.0000000000000000e+00  0.0000000000000000e+00  2.2202978982249141e-03  4.4167777405332096e-03  6.5657468335360552e-03  8.6439546950038224e-03  1.0628818615987455e-02  1.2498652348140278e-02  1.4232897257847814e-02  1.5812354060724641e-02  1.7219411977674390e-02  1.8438270975086660e-02  1.9455151798389570e-02  2.0258487891830129e-02  2.0839093098688869e-02  2.1190299296565688e-02  2.1308058839753268e-02  2.1191007809299035e-02  2.0840487526044987e-02  2.0260523446355743e-02  1.9457762297895566e-02  1.8441369980169792e-02  1.7222894214838302e-02  1.5816097067142321e-02  1.4236763186281582e-02  1.2502489882468704e-02  1.0632464968272427e-02  8.6472376817345754e-03  6.5684870578071623e-03  4.4187909333798453e-03  2.2213974904181171e-03  0.0000000000000000e+00  0.0000000000000000e+00  2.1829922235217193e-03  4.3426535138413706e-03  6.4556833833497949e-03  8.4992148501888409e-03  1.0451036436972681e-02  1.2289817196999325e-02  1.3995334123062449e-02  1.5548700094025130e-02  1.6932589267556288e-02  1.8131455669590280e-02  1.9131739792045726e-02  1.9922057400812706e-02  2.0493364556130905e-02  2.0839093098688852e-02  2.0955251555569265e-02  2.0840487526044976e-02  2.0496109034872149e-02  1.9926063975941238e-02  1.9136878477829602e-02  1.8137556663822878e-02  1.6939445717734251e-02  1.5556071288167845e-02  1.4002948982941328e-02  1.2297377975734606e-02  1.0458222564713179e-02  8.5056869264719878e-03  6.4610873752060831e-03  4.3466252743507806e-03  2.1851624841581455e-03  0.0000000000000000e+00  0.0000000000000000e+00  2.1216718701793130e-03  4.2207555134456979e-03  6.2745984783118330e-03  8.2609684494555809e-03  1.0158269269230606e-02  1.1945759840895062e-02  1.3603775290906906e-02  1.5113948610569619e-02  1.6459429790093915e-02  1.7625098333232420e-02  1.8597764125432382e-02  1.9366351031685686e-02  1.9922057400812685e-02  2.0258487891830095e-02  2.0371751714406985e-02  2.0260523446355719e-02  1.9926063975941228e-02  1.9372200704728868e-02  1.8605267807485816e-02  1.7634008942137239e-02  1.6469446204037355e-02  1.5124720212708215e-02  1.3614906923009111e-02  1.1956817020860317e-02  1.0168783591751954e-02  8.2704431750668626e-03  6.2825144126132486e-03  4.2265773692845409e-03  2.1248553708103110e-03  0.0000000000000000e+00  0.0000000000000000e+00  2.0370482397694656e-03  4.0524975235315562e-03  6.0245914903098259e-03  7.9319760934798006e-03  9.7539073140431014e-03  1.1470461553392576e-02  1.3062748116307366e-02  1.4513122095619085e-02  1.5805394815186603e-02  1.6925037906586716e-02  1.7859376211811117e-02  1.8597764125432379e-02  1.9131739792045698e-02  1.9455151798389535e-02  1.9564253643922069e-02  1.9457762297895524e-02  1.9136878477829571e-02  1.8605267807485799e-02  1.7869003607008157e-02  1.6936473602131717e-02  1.5818254187526717e-02  1.4526956933659012e-02  1.3077052707428321e-02  1.1484679040281576e-02  9.7674362188508151e-03  7.9441770269976109e-03  6.0347942041940822e-03  4.0600086010661729e-03  2.0411598248323152e-03  0.0000000000000000e+00  0.0000000000000000e+00  1.9300961346997052e-03  3.8398173611668496e-03  5.7085408502199671e-03  7.5160240932483626e-03  9.2426020850692962e-03  1.0869386914881084e-02  1.2378469226147340e-02  1.3753119978765448e-02  1.4977989854810862e-02  1.6039302619767708e-02  1.6925037906586723e-02  1.7625098333232433e-02  1.8131455669590280e-02  1.8438270975086650e-02  1.8541984233768689e-02  1.8441369980169729e-02  1.8137556663822826e-02  1.7634008942137191e-02  1.6936473602131699e-02  1.6052891266469350e-02  1.4993277319211835e-02  1.3769576489592397e-02  1.2395496182487826e-02  1.0886323900459099e-02  9.2587339597253737e-03  7.5305881935512613e-03  5.7207345261091370e-03  3.8488062778497304e-03  1.9350239355848369e-03  0.0000000000000000e+00  0.0000000000000000e+00  1.8020393440422422e-03  3.5851481949364500e-03  5.3300613815189099e-03  7.0178682481516720e-03  8.6301972157286060e-03  1.0149402389950822e-02  1.1558751756762768e-02  1.2842615559525443e-02  1.3986652427921364e-02  1.4977989854810870e-02  1.5805394815186610e-02  1.6459429790093936e-02  1.6932589267556294e-02  1.7219411977674397e-02  1.7316564679333520e-02  1.7222894214838226e-02  1.6939445717734189e-02  1.6469446204037296e-02  1.5818254187526675e-02  1.4993277319211819e-02  1.4003861248363570e-02  1.2861153842364786e-02  1.1577949514916232e-02  1.0168518658273680e-02  8.6484270514826378e-03  7.0343496534884540e-03  5.3438824474259265e-03  3.5953550612712886e-03  1.8076458420412645e-03  0.0000000000000000e+00  0.0000000000000000e+00  1.6543332095182639e-03  3.2913838265333701e-03  4.8934526053339656e-03  6.4431656655522685e-03  7.9236444822682831e-03  9.3186774413291269e-03  1.0612892633781700e-02  1.1791930698665420e-02  1.2842615559525443e-02  1.3753119978765460e-02  1.4513122095619103e-02  1.5113948610569647e-02  1.5548700094025144e-02  1.5812354060724655e-02  1.5901841961582813e-02  1.5816097067142241e-02  1.5556071288167776e-02  1.5124720212708141e-02  1.4526956933658948e-02  1.3769576489592344e-02  1.2861153842364763e-02  1.1811919180526473e-02  1.0633614903835419e-02  9.3393388766708010e-03  7.9433784348444236e-03  6.4610392210285748e-03  4.9084722650956534e-03  3.3025018896722888e-03  1.6604560825903595e-03  0.0000000000000000e+00  0.0000000000000000e+00  1.4886448357616336e-03  2.9618392348363279e-03  4.4036399113459275e-03  5.7983970727167756e-03  7.1309080173176595e-03  8.3865716493864012e-03  9.5515438261710665e-03  1.0612892633781691e-02  1.1558751756762757e-02  1.2378469226147342e-02  1.3062748116307378e-02  1.3603775290906927e-02  1.3995334123062463e-02  1.4232897257847819e-02  1.4313695942223733e-02  1.4236763186281507e-02  1.4002948982941254e-02  1.3614906923009032e-02  1.3077052707428250e-02  1.2395496182487770e-02  1.1577949514916197e-02  1.0633614903835412e-02  9.5730557383538195e-03  8.4080553232509063e-03  7.1514672114095096e-03  5.8170608315386120e-03  4.4193655399404740e-03  2.9735155253676065e-03  1.4950972163834428e-03  0.0000000000000000e+00  0.0000000000000000e+00  1.3068316722078125e-03  2.6002077818830572e-03  3.8661105998879924e-03  5.0907821838606770e-03  6.2608598040410669e-03  7.3635114321935662e-03  8.3865716493863943e-03  9.3186774413291096e-03  1.0149402389950806e-02  1.0869386914881077e-02  1.1470461553392580e-02  1.1945759840895073e-02  1.2289817196999337e-02  1.2498652348140279e-02  1.2569828220007188e-02  1.2502489882468637e-02  1.2297377975734542e-02  1.1956817020860254e-02  1.1484679040281510e-02  1.0886323900459053e-02  1.0168518658273651e-02  9.3393388766707924e-03  8.4080553232509063e-03  7.3850096528115449e-03  6.2814826049060997e-03  5.1095579547307439e-03  3.8819850035294360e-03  2.6120418649803715e-03  1.3134012645614449e-03  0.0000000000000000e+00  0.0000000000000000e+00  1.1109192564842999e-03  2.2105165354886140e-03  3.2868467967147462e-03  4.3281906130998010e-03  5.3231694166225307e-03  6.2608598040410669e-03  7.1309080173176569e-03  7.9236444822682727e-03  8.6301972157286008e-03  9.2426020850692962e-03  9.7539073140431084e-03  1.0158269269230615e-02  1.0451036436972701e-02  1.0628818615987469e-02  1.0689538698508321e-02  1.0632464968272370e-02  1.0458222564713120e-02  1.0168783591751898e-02  9.7674362188507630e-03  9.2587339597253442e-03  8.6484270514826222e-03  7.9433784348444132e-03  7.1514672114095087e-03  6.2814826049060989e-03  5.3430113848763425e-03  4.3463214599830388e-03  3.3022439895897472e-03  2.2220560148922841e-03  1.1173654157520432e-03  0.0000000000000000e+00  0.0000000000000000e+00  9.0307904469608005e-04  1.7970812346866129e-03  2.6722571461249996e-03  3.5190505719787965e-03  4.3281906130998027e-03  5.0907821838606804e-03  5.7983970727167765e-03  6.4431656655522624e-03  7.0178682481516720e-03  7.5160240932483644e-03  7.9319760934798075e-03  8.2609684494555895e-03  8.4992148501888479e-03  8.6439546950038346e-03  8.6934951990461813e-03  8.6472376817345303e-03  8.5056869264719427e-03  8.2704431750668193e-03  7.9441770269975728e-03  7.5305881935512362e-03  7.0343496534884436e-03  6.4610392210285696e-03  5.8170608315386112e