<?xml version="1.0"?>
<VTKFile type="UnstructuredGrid"  version="0.1"  >
<UnstructuredGrid>
<Piece  NumberOfPoints="961" NumberOfCells="1800">
<Points>
<DataArray  type="Float64"  NumberOfComponents="3"  format="ascii">-2 -2 0  -1.866666666666667 -2 0  -1.733333333333333 -2 0  -1.6 -2 0  -1.466666666666667 -2 0  -1.333333333333333 -2 0  -1.2 -2 0  -1.066666666666667 -2 0  -0.9333333333333333 -2 0  -0.8 -2 0  -0.6666666666666667 -2 0  -0.5333333333333334 -2 0  -0.3999999999999999 -2 0  -0.2666666666666666 -2 0  -0.1333333333333333 -2 0  0 -2 0  0.1333333333333333 -2 0  0.2666666666666666 -2 0  0.3999999999999999 -2 0  0.5333333333333332 -2 0  0.6666666666666665 -2 0  0.7999999999999998 -2 0  0.9333333333333331 -2 0  1.066666666666667 -2 0  1.2 -2 0  1.333333333333333 -2 0  1.466666666666667 -2 0  1.6 -2 0  1.733333333333333 -2 0  1.866666666666667 -2 0  2 -2 0  -2 -1.866666666666667 0  -1.866666666666667 -1.866666666666667 0  -1.733333333333333 -1.866666666666667 0  -1.6 -1.866666666666667 0  -1.466666666666667 -1.866666666666667 0  -1.333333333333333 -1.866666666666667 0  -1.2 -1.866666666666667 0  -1.066666666666667 -1.866666666666667 0  -0.9333333333333333 -1.866666666666667 0  -0.8 -1.866666666666667 0  -0.6666666666666667 -1.866666666666667 0  -0.5333333333333334 -1.866666666666667 0  -0.3999999999999999 -1.866666666666667 0  -0.2666666666666666 -1.866666666666667 0  -0.1333333333333333 -1.866666666666667 0  0 -1.866666666666667 0  0.1333333333333333 -1.866666666666667 0  0.2666666666666666 -1.866666666666667 0  0.3999999999999999 -1.866666666666667 0  0.5333333333333332 -1.866666666666667 0  0.6666666666666665 -1.866666666666667 0  0.7999999999999998 -1.866666666666667 0  0.9333333333333331 -1.866666666666667 0  1.066666666666667 -1.866666666666667 0  1.2 -1.866666666666667 0  1.333333333333333 -1.866666666666667 0  1.466666666666667 -1.866666666666667 0  1.6 -1.866666666666667 0  1.733333333333333 -1.866666666666667 0  1.866666666666667 -1.866666666666667 0  2 -1.866666666666667 0  -2 -1.733333333333333 0  -1.866666666666667 -1.733333333333333 0  -1.733333333333333 -1.733333333333333 0  -1.6 -1.733333333333333 0  -1.466666666666667 -1.733333333333333 0  -1.333333333333333 -1.733333333333333 0  -1.2 -1.733333333333333 0  -1.066666666666667 -1.733333333333333 0  -0.9333333333333333 -1.733333333333333 0  -0.8 -1.733333333333333 0  -0.6666666666666667 -1.733333333333333 0  -0.5333333333333334 -1.733333333333333 0  -0.3999999999999999 -1.733333333333333 0  -0.2666666666666666 -1.733333333333333 0  -0.1333333333333333 -1.733333333333333 0  0 -1.733333333333333 0  0.1333333333333333 -1.733333333333333 0  0.2666666666666666 -1.733333333333333 0  0.3999999999999999 -1.733333333333333 0  0.5333333333333332 -1.733333333333333 0  0.6666666666666665 -1.733333333333333 0  0.7999999999999998 -1.733333333333333 0  0.9333333333333331 -1.733333333333333 0  1.066666666666667 -1.733333333333333 0  1.2 -1.733333333333333 0  1.333333333333333 -1.733333333333333 0  1.466666666666667 -1.733333333333333 0  1.6 -1.733333333333333 0  1.733333333333333 -1.733333333333333 0  1.866666666666667 -1.733333333333333 0  2 -1.733333333333333 0  -2 -1.6 0  -1.866666666666667 -1.6 0  -1.733333333333333 -1.6 0  -1.6 -1.6 0  -1.466666666666667 -1.6 0  -1.333333333333333 -1.6 0  -1.2 -1.6 0  -1.066666666666667 -1.6 0  -0.9333333333333333 -1.6 0  -0.8 -1.6 0  -0.6666666666666667 -1.6 0  -0.5333333333333334 -1.6 0  -0.3999999999999999 -1.6 0  -0.2666666666666666 -1.6 0  -0.1333333333333333 -1.6 0  0 -1.6 0  0.1333333333333333 -1.6 0  0.2666666666666666 -1.6 0  0.3999999999999999 -1.6 0  0.5333333333333332 -1.6 0  0.6666666666666665 -1.6 0  0.7999999999999998 -1.6 0  0.9333333333333331 -1.6 0  1.066666666666667 -1.6 0  1.2 -1.6 0  1.333333333333333 -1.6 0  1.466666666666667 -1.6 0  1.6 -1.6 0  1.733333333333333 -1.6 0  1.866666666666667 -1.6 0  2 -1.6 0  -2 -1.466666666666667 0  -1.866666666666667 -1.466666666666667 0  -1.733333333333333 -1.466666666666667 0  -1.6 -1.466666666666667 0  -1.466666666666667 -1.466666666666667 0  -1.333333333333333 -1.466666666666667 0  -1.2 -1.466666666666667 0  -1.066666666666667 -1.466666666666667 0  -0.9333333333333333 -1.466666666666667 0  -0.8 -1.466666666666667 0  -0.6666666666666667 -1.466666666666667 0  -0.5333333333333334 -1.466666666666667 0  -0.3999999999999999 -1.466666666666667 0  -0.2666666666666666 -1.466666666666667 0  -0.1333333333333333 -1.466666666666667 0  0 -1.466666666666667 0  0.1333333333333333 -1.466666666666667 0  0.2666666666666666 -1.466666666666667 0  0.3999999999999999 -1.466666666666667 0  0.5333333333333332 -1.466666666666667 0  0.6666666666666665 -1.466666666666667 0  0.7999999999999998 -1.466666666666667 0  0.9333333333333331 -1.466666666666667 0  1.066666666666667 -1.466666666666667 0  1.2 -1.466666666666667 0  1.333333333333333 -1.466666666666667 0  1.466666666666667 -1.466666666666667 0  1.6 -1.466666666666667 0  1.733333333333333 -1.466666666666667 0  1.866666666666667 -1.466666666666667 0  2 -1.466666666666667 0  -2 -1.333333333333333 0  -1.866666666666667 -1.333333333333333 0  -1.733333333333333 -1.333333333333333 0  -1.6 -1.333333333333333 0  -1.466666666666667 -1.333333333333333 0  -1.333333333333333 -1.333333333333333 0  -1.2 -1.333333333333333 0  -1.066666666666667 -1.333333333333333 0  -0.9333333333333333 -1.333333333333333 0  -0.8 -1.333333333333333 0  -0.6666666666666667 -1.333333333333333 0  -0.5333333333333334 -1.333333333333333 0  -0.3999999999999999 -1.333333333333333 0  -0.2666666666666666 -1.333333333333333 0  -0.1333333333333333 -1.333333333333333 0  0 -1.333333333333333 0  0.1333333333333333 -1.333333333333333 0  0.2666666666666666 -1.333333333333333 0  0.3999999999999999 -1.333333333333333 0  0.5333333333333332 -1.333333333333333 0  0.6666666666666665 -1.333333333333333 0  0.7999999999999998 -1.333333333333333 0  0.9333333333333331 -1.333333333333333 0  1.066666666666667 -1.333333333333333 0  1.2 -1.333333333333333 0  1.333333333333333 -1.333333333333333 0  1.466666666666667 -1.333333333333333 0  1.6 -1.333333333333333 0  1.733333333333333 -1.333333333333333 0  1.866666666666667 -1.333333333333333 0  2 -1.333333333333333 0  -2 -1.2 0  -1.866666666666667 -1.2 0  -1.733333333333333 -1.2 0  -1.6 -1.2 0  -1.466666666666667 -1.2 0  -1.333333333333333 -1.2 0  -1.2 -1.2 0  -1.066666666666667 -1.2 0  -0.9333333333333333 -1.2 0  -0.8 -1.2 0  -0.6666666666666667 -1.2 0  -0.5333333333333334 -1.2 0  -0.3999999999999999 -1.2 0  -0.2666666666666666 -1.2 0  -0.1333333333333333 -1.2 0  0 -1.2 0  0.1333333333333333 -1.2 0  0.2666666666666666 -1.2 0  0.3999999999999999 -1.2 0  0.5333333333333332 -1.2 0  0.6666666666666665 -1.2 0  0.7999999999999998 -1.2 0  0.9333333333333331 -1.2 0  1.066666666666667 -1.2 0  1.2 -1.2 0  1.333333333333333 -1.2 0  1.466666666666667 -1.2 0  1.6 -1.2 0  1.733333333333333 -1.2 0  1.866666666666667 -1.2 0  2 -1.2 0  -2 -1.066666666666667 0  -1.866666666666667 -1.066666666666667 0  -1.733333333333333 -1.066666666666667 0  -1.6 -1.066666666666667 0  -1.466666666666667 -1.066666666666667 0  -1.333333333333333 -1.066666666666667 0  -1.2 -1.066666666666667 0  -1.066666666666667 -1.066666666666667 0  -0.9333333333333333 -1.066666666666667 0  -0.8 -1.066666666666667 0  -0.6666666666666667 -1.066666666666667 0  -0.5333333333333334 -1.066666666666667 0  -0.3999999999999999 -1.066666666666667 0  -0.2666666666666666 -1.066666666666667 0  -0.1333333333333333 -1.066666666666667 0  0 -1.066666666666667 0  0.1333333333333333 -1.066666666666667 0  0.2666666666666666 -1.066666666666667 0  0.3999999999999999 -1.066666666666667 0  0.5333333333333332 -1.066666666666667 0  0.6666666666666665 -1.066666666666667 0  0.7999999999999998 -1.066666666666667 0  0.9333333333333331 -1.066666666666667 0  1.066666666666667 -1.066666666666667 0  1.2 -1.066666666666667 0  1.333333333333333 -1.066666666666667 0  1.466666666666667 -1.066666666666667 0  1.6 -1.066666666666667 0  1.733333333333333 -1.066666666666667 0  1.866666666666667 -1.066666666666667 0  2 -1.066666666666667 0  -2 -0.9333333333333333 0  -1.866666666666667 -0.9333333333333333 0  -1.733333333333333 -0.9333333333333333 0  -1.6 -0.9333333333333333 0  -1.466666666666667 -0.9333333333333333 0  -1.333333333333333 -0.9333333333333333 0  -1.2 -0.9333333333333333 0  -1.066666666666667 -0.9333333333333333 0  -0.9333333333333333 -0.9333333333333333 0  -0.8 -0.9333333333333333 0  -0.6666666666666667 -0.9333333333333333 0  -0.5333333333333334 -0.9333333333333333 0  -0.3999999999999999 -0.9333333333333333 0  -0.2666666666666666 -0.9333333333333333 0  -0.1333333333333333 -0.9333333333333333 0  0 -0.9333333333333333 0  0.1333333333333333 -0.9333333333333333 0  0.2666666666666666 -0.9333333333333333 0  0.3999999999999999 -0.9333333333333333 0  0.5333333333333332 -0.9333333333333333 0  0.6666666666666665 -0.9333333333333333 0  0.7999999999999998 -0.9333333333333333 0  0.9333333333333331 -0.9333333333333333 0  1.066666666666667 -0.9333333333333333 0  1.2 -0.9333333333333333 0  1.333333333333333 -0.9333333333333333 0  1.466666666666667 -0.9333333333333333 0  1.6 -0.9333333333333333 0  1.733333333333333 -0.9333333333333333 0  1.866666666666667 -0.9333333333333333 0  2 -0.9333333333333333 0  -2 -0.8 0  -1.866666666666667 -0.8 0  -1.733333333333333 -0.8 0  -1.6 -0.8 0  -1.466666666666667 -0.8 0  -1.333333333333333 -0.8 0  -1.2 -0.8 0  -1.066666666666667 -0.8 0  -0.9333333333333333 -0.8 0  -0.8 -0.8 0  -0.6666666666666667 -0.8 0  -0.5333333333333334 -0.8 0  -0.3999999999999999 -0.8 0  -0.2666666666666666 -0.8 0  -0.1333333333333333 -0.8 0  0 -0.8 0  0.1333333333333333 -0.8 0  0.2666666666666666 -0.8 0  0.3999999999999999 -0.8 0  0.5333333333333332 -0.8 0  0.6666666666666665 -0.8 0  0.7999999999999998 -0.8 0  0.9333333333333331 -0.8 0  1.066666666666667 -0.8 0  1.2 -0.8 0  1.333333333333333 -0.8 0  1.466666666666667 -0.8 0  1.6 -0.8 0  1.733333333333333 -0.8 0  1.866666666666667 -0.8 0  2 -0.8 0  -2 -0.6666666666666667 0  -1.866666666666667 -0.
[...]
<PointData  Scalars="f_12"> 
<DataArray  type="Float64"  Name="f_12"  format="ascii">0.0000000000000000e+00  0.0000000000000000e+00  0.0000000000000000e+00  0.0000000000000000e+00  0.0000000000000000e+00  0.0000000000000000e+00  0.0000000000000000e+00  0.0000000000000000e+00  0.0000000000000000e+00  0.0000000000000000e+00  0.0000000000000000e+00  0.0000000000000000e+00  0.0000000000000000e+00  0.0000000000000000e+00  0.0000000000000000e+00  0.0000000000000000e+00  0.0000000000000000e+00  0.0000000000000000e+00  0.0000000000000000e+00  0.0000000000000000e+00  0.0000000000000000e+00  0.0000000000000000e+00  0.0000000000000000e+00  0.0000000000000000e+00  0.0000000000000000e+00  0.0000000000000000e+00  0.0000000000000000e+00  0.0000000000000000e+00  0.0000000000000000e+00  0.0000000000000000e+00  0.0000000000000000e+00  0.0000000000000000e+00  2.8270161223134863e-04  5.6191578956438747e-04  8.3487512608166703e-04  1.0987561474431011e-03  1.3507655063057561e-03  1.5881886297467675e-03  1.8084274124153170e-03  2.0090349699335309e-03  2.1877497468025821e-03  2.3425292135462331e-03  2.4715825051784242e-03  2.5734009336833108e-03  2.6467851329773054e-03  2.6908675921123236e-03  2.7051294679976182e-03  2.6894108170603050e-03  2.6439137179933929e-03  2.5691981425643687e-03  2.4661708327360535e-03  2.3360678241020568e-03  2.1804315850385263e-03  2.0010839921988416e-03  1.8000965215311713e-03  1.5797591027491785e-03  1.3425490964204087e-03  1.0911019003943992e-03  8.2818503162374458e-04  5.5667891849275571e-04  2.7957258388740898e-04  0.0000000000000000e+00  0.0000000000000000e+00  5.6191578956438736e-04  1.1172023470695134e-03  1.6601586409638936e-03  2.1851059328645644e-03  2.6864650873463002e-03  3.1588267277661997e-03  3.5970179124098179e-03  3.9961683705741283e-03  4.3517772180341240e-03  4.6597794991998795e-03  4.9166108906774650e-03  5.1192683038843792e-03  5.2653638595911555e-03  5.3531697318644532e-03  5.3816516398637135e-03  5.3504892639134648e-03  5.2600825258129020e-03  5.1115434395390029e-03  4.9066740370544669e-03  4.6479316332406085e-03  4.3383833480886511e-03  3.9816523000824333e-03  3.5818581890129497e-03  3.1435550935600344e-03  2.6716692503600298e-03  2.1714394416049452e-03  1.6483625610889700e-03  1.1081472095674063e-03  5.5667891849275582e-04  0.0000000000000000e+00  0.0000000000000000e+00  8.3487512608166703e-04  1.6601586409638941e-03  2.4672493123046590e-03  3.2476446578869351e-03  3.9930215216705716e-03  4.6953233643219142e-03  5.3468516633743560e-03  5.9403608662516715e-03  6.4691559141444310e-03  6.9271903535450211e-03  7.3091621237425693e-03  7.6106034631661648e-03  7.8279610860631874e-03  7.9586628613151061e-03  8.0011676617874634e-03  7.9549958010768935e-03  7.8207384645160270e-03  7.6000456819398637e-03  7.2955935774817503e-03  6.9110327600483351e-03  6.4509206880080600e-03  5.9206415713499811e-03  5.3263178087231489e-03  4.6747170729041264e-03  3.9731589701348571e-03  3.2294247522709715e-03  2.4516729078300241e-03  1.6483625610889704e-03  8.2818503162374491e-04  0.0000000000000000e+00  0.0000000000000000e+00  1.0987561474431007e-03  2.1851059328645644e-03  3.2476446578869342e-03  4.2751284761816518e-03  5.2565698462958919e-03  6.1813439189482376e-03  7.0393035864272065e-03  7.8209014851496565e-03  8.5173167218324901e-03  9.1205831259952071e-03  9.6237148701309779e-03  1.0020824599349483e-02  1.0307228907309432e-02  1.0479536140407244e-02  1.0535712106223144e-02  1.0475120256887642e-02  1.0298534225942861e-02  1.0008122101314918e-02  9.6074033818785171e-03  9.1011810504679595e-03  8.4954524704189249e-03  7.7973037656316035e-03  7.0147928975182313e-03  6.1568267663906070e-03  5.2330373392308260e-03  4.2536610690033158e-03  3.2294247522709715e-03  2.1714394416049460e-03  1.0911019003943996e-03  0.0000000000000000e+00  0.0000000000000000e+00  1.3507655063057552e-03  2.6864650873462989e-03  3.9930215216705698e-03  5.2565698462958910e-03  6.4635722583436918e-03  7.6009452349716719e-03  8.6561979257013272e-03  9.6175800273154421e-03  1.0474236233226887e-02  1.1216363098559400e-02  1.1835363030216888e-02  1.2323989308426214e-02  1.2676475712039625e-02  1.2888644523060369e-02  1.2957987430067477e-02  1.2883715080700214e-02  1.2666772645728658e-02  1.2309820609190546e-02  1.1817181924933289e-02  1.1194758506980125e-02  1.0449921586584691e-02  9.5913816352272609e-03  8.6290442207823965e-03  7.5738582802938664e-03  6.4376628513064787e-03  5.2330373392308277e-03  3.9731589701348597e-03  2.6716692503600320e-03  1.3425490964204096e-03  0.0000000000000000e+00  0.0000000000000000e+00  1.5881886297467657e-03  3.1588267277661945e-03  4.6953233643219072e-03  6.1813439189482332e-03  7.6009452349716667e-03  8.9387237378553853e-03  1.0179976567682898e-02  1.1310874106555339e-02  1.2318640598879946e-02  1.3191737947338583e-02  1.3920046398374073e-02  1.4495034887867764e-02  1.4909913434690308e-02  1.5159760217858387e-02  1.5241616854411711e-02  1.5154546846035075e-02  1.4899654061196838e-02  1.4480060299621194e-02  1.3900843252736350e-02  1.3168938324080597e-02  1.2293009615306522e-02  1.1283296753691696e-02  1.0151445017815303e-02  8.9103263458092524e-03  7.5738582802938638e-03  6.1568267663906062e-03  4.6747170729041256e-03  3.1435550935600349e-03  1.5797591027491794e-03  0.0000000000000000e+00  0.0000000000000000e+00  1.8084274124153150e-03  3.5970179124098140e-03  5.3468516633743517e-03  7.0393035864271978e-03  8.6561979257013203e-03  1.0179976567682894e-02  1.1593881773417844e-02  1.2882151849460377e-02  1.4030226169116288e-02  1.5024953999733035e-02  1.5854799977019076e-02  1.6510037970501341e-02  1.6982924640102641e-02  1.7267844263948558e-02  1.7361417420742514e-02  1.7262567762602682e-02  1.6972543277461317e-02  1.6494890924467022e-02  1.5835386109792092e-02  1.5001920922111172e-02  1.4004357147451314e-02  1.2854351646298957e-02  1.1565162567058054e-02  1.0151445017815296e-02  8.6290442207823947e-03  7.0147928975182287e-03  5.3263178087231446e-03  3.5818581890129488e-03  1.8000965215311715e-03  0.0000000000000000e+00  0.0000000000000000e+00  2.0090349699335291e-03  3.9961683705741248e-03  5.9403608662516663e-03  7.8209014851496512e-03  9.6175800273154352e-03  1.1310874106555338e-02  1.2882151849460375e-02  1.4313888849964684e-02  1.5589895540175364e-02  1.6695548892878265e-02  1.7618020529937314e-02  1.8346492064533603e-02  1.8872347996128507e-02  1.9189336779308321e-02  1.9293691797089629e-02  1.9184205802575731e-02  1.8862254795516765e-02  1.8331770061609153e-02  1.7599159976002195e-02  1.6673185900746113e-02  1.5564798844778033e-02  1.4286945297779867e-02  1.2854351646298959e-02  1.1283296753691692e-02  9.5913816352272609e-03  7.7973037656316000e-03  5.9206415713499759e-03  3.9816523000824298e-03  2.0010839921988407e-03  0.0000000000000000e+00  0.0000000000000000e+00  2.1877497468025800e-03  4.3517772180341197e-03  6.4691559141444258e-03  8.5173167218324849e-03  1.0474236233226880e-02  1.2318640598879934e-02  1.4030226169116280e-02  1.5589895540175366e-02  1.6980004933428539e-02  1.8184616350970677e-02  1.9189745912372314e-02  1.9983598395527939e-02  2.0556777432902663e-02  2.0902461131803961e-02  2.1016534087586504e-02  2.0897668750470853e-02  2.0547351721250915e-02  1.9969853558880216e-02  1.9172143815353159e-02  1.8163755989485660e-02  1.6956609645043648e-02  1.5564798844778066e-02  1.4004357147451341e-02  1.2293009615306535e-02  1.0449921586584704e-02  8.4954524704189405e-03  6.4509206880080713e-03  4.3383833480886581e-03  2.1804315850385302e-03  0.0000000000000000e+00  0.0000000000000000e+00  2.3425292135462296e-03  4.6597794991998743e-03  6.9271903535450150e-03  9.1205831259951967e-03  1.1216363098559388e-02  1.3191737947338576e-02  1.5024953999733035e-02  1.6695548892878276e-02  1.8184616350970680e-02  1.9475076117832918e-02  2.0551939876072692e-02  2.1402562484724920e-02  2.2016867238971442e-02  2.2387534182750538e-02  2.2510141781144532e-02  2.2383254386255328e-02  2.2008450727135930e-02  2.1390291875180059e-02  2.0536230493584294e-02  1.9456466371952860e-02  1.8163755989485691e-02  1.6673185900746176e-02  1.5001920922111231e-02  1.3168938324080637e-02  1.1194758506980153e-02  9.1011810504679821e-03  6.9110327600483525e-03  4.6479316332406232e-03  2.3360678241020646e-03  0.0000000000000000e+00  0.0000000000000000e+00  2.4715825051784207e-03  4.9166108906774589e-03  7.3091621237425623e-03  9.6237148701309658e-03  1.1835363030216877e-02  1.3920046398374065e-02  1.5854799977019076e-02  1.7618020529937321e-02  1.9189745912372318e-02  2.0551939876072688e-02  2.1688772706324924e-02  2.2586886450408804e-02  2.3235632819620950e-02  2.3627272180012943e-02  2.3757123383802963e-02  2.3623656430855126e-02  2.3228522897211640e-02  2.2576522465841416e-02  2.1675507439972572e-02  2.0536230493584325e-02  1.9172143815353229e-02  1.7599159976002299e-02  1.5835386109792175e-02  1.3900843252736406e-02  1.1817181924933329e-02  9.6074033818785501e-03  7.2955935774817720e-03  4.9066740370544894e-03  2.4661708327360647e-03  0.0000000000000000e+00  0.0000000000000000e+00  2.5734009336833056e-03  5.1192683038843671e-03  7.6106034631661500e-03  1.0020824599349460e-02  1.2323989308426186e-02  1.4495034887867745e-02  1.6510037970501334e-02  1.8346492064533603e-02  1.9983598395527935e-02  2.1402562484724906e-02  2.2586886450408794e-02  2.3522645343292927e-02  2.4198735109064309e-02  2.4607080106349131e-02  2.4742789490638951e-02  2.4604254097388260e-02  2.4193178522682504e-02  2.3514546637528947e-02  2.2576522465841402e-02  2.1390291875180083e-02  1.9969853558880271e-02  1.8331770061609243e-02  1.6494890924467109e-02  1.4480060299621253e-02  1.2309820609190579e-02  1.0008122101314952e-02  7.6000456819398932e-03  5.1115434395390237e-03  2.5691981425643813e-03  0.0000000000000000e+00  0.0000000000000000e+00  2.6467851329772985e-03  5.2653638595911399e-03  7.8279610860631649e-03  1.0307228907309401e-02  1.2676475712039588e-02  1.4909913434690284e-02  1.6982924640102641e-02  1.8872347996128525e-02  2.0556777432902663e-02  2.2016867238971418e-02  2.3235632819620933e-02  2.4198735109064295e-02  2.4894735878567623e-02  2.5315311516301182e-02  2.5455414266878154e-02  2.5313372300256078e-02  2.4890923128025617e-02  2.4193178522682487e-02  2.3228522897211619e-02  2.2008450727135944e-02  2.0547351721250974e-02  1.8862254795516852e-02  1.6972543277461397e-02  1.4899654061196898e-02  1.2666772645728699e-02  1.0298534225942896e-02  7.8207384645160530e-03  5.2600825258129220e-03  2.6439137179934042e-03  0.0000000000000000e+00  0.0000000000000000e+00  2.6908675921123153e-03  5.3531697318644341e-03  7.9586628613150731e-03  1.0479536140407208e-02  1.2888644523060325e-02  1.5159760217858361e-02  1.7267844263948548e-02  1.9189336779308321e-02  2.0902461131803968e-02  2.2387534182750513e-02  2.3627272180012912e-02  2.4607080106349103e-02  2.5315311516301169e-02  2.5743486223704658e-02  2.5886454628124091e-02  2.5742499882479640e-02  2.5313372300256067e-02  2.4604254097388228e-02  2.3623656430855091e-02  2.2383254386255335e-02  2.0897668750470905e-02  1.9184205802575818e-02  1.7262567762602762e-02  1.5154546846035136e-02  1.2883715080700263e-02  1.0475120256887682e-02  7.9549958010769230e-03  5.3504892639134839e-03  2.6894108170603154e-03  0.0000000000000000e+00  0.0000000000000000e+00  2.7051294679976095e-03  5.3816516398636971e-03  8.0011676617874391e-03  1.0535712106223111e-02  1.2957987430067442e-02  1.5241616854411692e-02  1.7361417420742490e-02  1.9293691797089604e-02  2.1016534087586480e-02  2.2510141781144487e-02  2.3757123383802918e-02  2.4742789490638906e-02  2.5455414266878133e-02  2.5886454628124073e-02  2.6030715833944389e-02  2.5886454628124063e-02  2.5455414266878130e-02  2.4742789490638906e-02  2.3757123383802939e-02  2.2510141781144539e-02  2.1016534087586549e-02  1.9293691797089719e-02  1.7361417420742577e-02  1.5241616854411767e-02  1.2957987430067524e-02  1.0535712106223179e-02  8.0011676617874894e-03  5.3816516398637326e-03  2.7051294679976282e-03  0.0000000000000000e+00  0.0000000000000000e+00  2.6894108170602967e-03  5.3504892639134492e-03  7.9549958010768761e-03  1.0475120256887615e-02  1.2883715080700185e-02  1.5154546846035051e-02  1.7262567762602665e-02  1.9184205802575700e-02  2.0897668750470805e-02  2.2383254386255266e-02  2.3623656430855049e-02  2.4604254097388211e-02  2.5313372300256043e-02  2.5742499882479609e-02  2.5886454628124059e-02  2.5743486223704624e-02  2.5315311516301141e-02  2.4607080106349079e-02  2.3627272180012905e-02  2.2387534182750541e-02  2.0902461131804006e-02  1.9189336779308404e-02  1.7267844263948631e-02  1.5159760217858437e-02  1.2888644523060412e-02  1.0479536140407277e-02  7.9586628613151304e-03  5.3531697318644714e-03  2.6908675921123336e-03  0.0000000000000000e+00  0.0000000000000000e+00  2.6439137179933851e-03  5.2600825258128873e-03  7.8207384645160045e-03  1.0298534225942830e-02  1.2666772645728627e-02  1.4899654061196808e-02  1.6972543277461300e-02  1.8862254795516731e-02  2.0547351721250860e-02  2.2008450727135854e-02  2.3228522897211550e-02  2.4193178522682445e-02  2.4890923128025568e-02  2.5313372300256029e-02  2.5455414266878106e-02  2.5315311516301134e-02  2.4894735878567581e-02  2.4198735109064270e-02  2.3235632819620922e-02  2.2016867238971460e-02  2.0556777432902705e-02  1.8872347996128587e-02  1.6982924640102717e-02  1.4909913434690362e-02  1.2676475712039666e-02  1.0307228907309467e-02  7.8279610860632152e-03  5.2653638595911737e-03  2.6467851329773149e-03  0.0000000000000000e+00  0.0000000000000000e+00  2.5691981425643618e-03  5.1115434395389882e-03  7.6000456819398420e-03  1.0008122101314892e-02  1.2309820609190511e-02  1.4480060299621169e-02  1.6494890924467001e-02  1.8331770061609114e-02  1.9969853558880160e-02  2.1390291875179990e-02  2.2576522465841339e-02  2.3514546637528885e-02  2.4193178522682417e-02  2.4604254097388173e-02  2.4742789490638867e-02  2.4607080106349051e-02  2.4198735109064257e-02  2.3522645343292889e-02  2.2586886450408777e-02  2.1402562484724916e-02  1.9983598395527973e-02  1.8346492064533673e-02  1.6510037970501407e-02  1.4495034887867814e-02  1.2323989308426250e-02  1.0020824599349510e-02  7.6106034631661882e-03  5.1192683038843948e-03  2.5734009336833199e-03  0.0000000000000000e+00  0.0000000000000000e+00  2.4661708327360474e-03  4.9066740370544547e-03  7.2955935774817321e-03  9.6074033818784963e-03  1.1817181924933263e-02  1.3900843252736328e-02  1.5835386109792078e-02  1.7599159976002161e-02  1.9172143815353114e-02  2.0536230493584235e-02  2.1675507439972493e-02  2.2576522465841332e-02  2.3228522897211529e-02  2.3623656430855018e-02  2.3757123383802887e-02  2.3627272180012870e-02  2.3235632819620881e-02  2.2586886450408752e-02  2.1688772706324896e-02  2.0551939876072699e-02  1.9189745912372352e-02  1.7618020529937394e-02  1.5854799977019149e-02  1.3920046398374131e-02  1.1835363030216931e-02  9.6237148701310091e-03  7.3091621237425936e-03  4.9166108906774815e-03  2.4715825051784333e-03  0.0000000000000000e+00  0.0000000000000000e+00  2.3360678241020508e-03  4.6479316332405972e-03  6.9110327600483187e-03  9.1011810504679387e-03  1.1194758506980103e-02  1.3168938324080575e-02  1.5001920922111143e-02  1.6673185900746068e-02  1.8163755989485598e-02  1.9456466371952794e-02  2.0536230493584245e-02  2.1390291875180000e-02  2.2008450727135847e-02  2.2383254386255248e-02  2.2510141781144459e-02  2.2387534182750475e-02  2.2016867238971387e-02  2.1402562484724868e-02  2.0551939876072671e-02  1.9475076117832932e-02  1.8184616350970725e-02  1.6695548892878359e-02  1.5024953999733120e-02  1.3191737947338642e-02  1.1216363098559440e-02  9.1205831259952401e-03  6.9271903535450489e-03  4.6597794991998977e-03  2.3425292135462426e-03  0.0000000000000000e+00  0.0000000000000000e+00  2.1804315850385207e-03  4.3383833480886399e-03  6.4509206880080444e-03  8.4954524704189023e-03  1.0449921586584665e-02  1.2293009615306490e-02  1.4004357147451277e-02  1.5564798844777988e-02  1.6956609645043575e-02  1.8163755989485605e-02  1.9172143815353135e-02  1.9969853558880181e-02  2.0547351721250866e-02  2.0897668750470805e-02  2.1016534087586459e-02  2.0902461131803926e-02  2.0556777432902632e-02  1.9983598395527907e-02  1.9189745912372307e-02  1.8184616350970705e-02  1.6980004933428595e-02  1.5589895540175447e-02  1.4030226169116363e-02  1.2318640598880005e-02  1.0474236233226934e-02  8.5173167218325300e-03  6.4691559141444597e-03  4.3517772180341431e-03  2.1877497468025921e-03  0.0000000000000000e+00  0.0000000000000000e+00  2.0010839921988338e-03  3.9816523000824168e-03  5.9206415713499612e-03  7.7973037656315740e-03  9.5913816352272314e-03  1.1283296753691654e-02  1.2854351646298905e-02  1.4286945297779798e-02  1.5564798844777976e-02  1.6673185900746082e-02  1.7599159976002185e-02  1.8331770061609142e-02  1.8862254795516745e-02  1.9184205802575710e-02  1.9293691797089604e-02  1.9189336779308307e-02  1.8872347996128500e-02  1.8346492064533589e-02  1.7618020529937325e-02  1.6695548892878311e-02  1.5589895540175430e-02  1.4313888849964766e-02  1.2882151849460446e-02  1.1310874106555393e-02  9.6175800273154838e-03  7.8209014851496911e-03  5.9403608662516993e-03  3.9961683705741456e-03  2.0090349699335409e-03  0.0000000000000000e+00  0.0000000000000000e+00  1.8000965215311633e-03  3.5818581890129336e-03  5.3263178087231237e-03  7.0147928975181984e-03  8.6290442207823601e-03  1.0151445017815258e-02  1.1565162567057996e-02  1.2854351646298888e-02  1.4004357147451253e-02  1.5001920922111143e-02  1.5835386109792089e-02  1.6494890924467018e-02  1.6972543277461307e-02  1.7262567762602668e-02  1.7361417420742480e-02  1.7267844263948541e-02  1.6982924640102627e-02  1.6510037970501323e-02  1.5854799977019069e-02  1.5024953999733057e-02  1.4030226169116332e-02  1.2882151849460437e-02  1.1593881773417896e-02  1.0179976567682934e-02  8.6561979257013567e-03  7.0393035864272317e-03  5.3468516633743751e-03  3.5970179124098301e-03  1.8084274124153233e-03  0.0000000000000000e+00  0.0000000000000000e+00  1.5797591027491712e-03  3.1435550935600197e-03  4.6747170729041039e-03  6.1568267663905775e-03  7.5738582802938317e-03  8.9103263458092125e-03  1.0151445017815246e-02  1.1283296753691632e-02  1.2293009615306463e-02  1.3168938324080563e-02  1.3900843252736326e-02  1.4480060299621180e-02  1.4899654061196820e-02  1.5154546846035054e-02  1.5241616854411687e-02  1.5159760217858361e-02  1.4909913434690295e-02  1.4495034887867745e-02  1.3920046398374063e-02  1.3191737947338592e-02  1.2318640598879970e-02  1.1310874106555385e-02  1.0179976567682934e-02  8.9387237378554148e-03  7.6009452349716953e-03  6.1813439189482575e-03  4.6953233643219272e-03  3.1588267277662088e-03  1.5881886297467727e-03  0.0000000000000000e+00  0.0000000000000000e+00  1.3425490964204020e-03  2.6716692503600172e-03  3.9731589701348397e-03  5.2330373392308017e-03  6.4376628513064518e-03  7.5738582802938291e-03  8.6290442207823531e-03  9.5913816352272124e-03  1.0449921586584650e-02  1.1194758506980098e-02  1.1817181924933267e-02  1.2309820609190522e-02  1.2666772645728651e-02  1.2883715080700202e-02  1.2957987430067455e-02  1.2888644523060341e-02  1.2676475712039606e-02  1.2323989308426195e-02  1.1835363030216883e-02  1.1216363098559405e-02  1.0474236233226911e-02  9.6175800273154751e-03  8.6561979257013567e-03  7.6009452349716971e-03  6.4635722583437135e-03  5.2565698462959101e-03  3.9930215216705846e-03  2.6864650873463080e-03  1.3507655063057611e-03  0.0000000000000000e+00  0.0000000000000000e+00  1.0911019003943939e-03  2.1714394416049347e-03  3.2294247522709563e-03  4.2536610690032967e-03  5.2330373392308043e-03  6.1568267663905793e-03  7.0147928975181966e-03  7.7973037656315644e-03  8.4954524704188988e-03  9.1011810504679370e-03  9.6074033818785032e-03  1.0008122101314906e-02  1.0298534225942849e-02  1.0475120256887632e-02  1.0535712106223127e-02  1.0479536140407223e-02  1.0307228907309415e-02  1.0020824599349469e-02  9.6237148701309692e-03  9.1205831259952123e-03  8.5173167218325109e-03  7.8209014851496859e-03  7.0393035864272317e