<?xml version="1.0"?>
<VTKFile type="UnstructuredGrid"  version="0.1"  >
<UnstructuredGrid>
<Piece  NumberOfPoints="961" NumberOfCells="1800">
<Points>
<DataArray  type="Float64"  NumberOfComponents="3"  format="ascii">-2 -2 0  -1.866666666666667 -2 0  -1.733333333333333 -2 0  -1.6 -2 0  -1.466666666666667 -2 0  -1.333333333333333 -2 0  -1.2 -2 0  -1.066666666666667 -2 0  -0.9333333333333333 -2 0  -0.8 -2 0  -0.6666666666666667 -2 0  -0.5333333333333334 -2 0  -0.3999999999999999 -2 0  -0.2666666666666666 -2 0  -0.1333333333333333 -2 0  0 -2 0  0.1333333333333333 -2 0  0.2666666666666666 -2 0  0.3999999999999999 -2 0  0.5333333333333332 -2 0  0.6666666666666665 -2 0  0.7999999999999998 -2 0  0.9333333333333331 -2 0  1.066666666666667 -2 0  1.2 -2 0  1.333333333333333 -2 0  1.466666666666667 -2 0  1.6 -2 0  1.733333333333333 -2 0  1.866666666666667 -2 0  2 -2 0  -2 -1.866666666666667 0  -1.866666666666667 -1.866666666666667 0  -1.733333333333333 -1.866666666666667 0  -1.6 -1.866666666666667 0  -1.466666666666667 -1.866666666666667 0  -1.333333333333333 -1.866666666666667 0  -1.2 -1.866666666666667 0  -1.066666666666667 -1.866666666666667 0  -0.9333333333333333 -1.866666666666667 0  -0.8 -1.866666666666667 0  -0.6666666666666667 -1.866666666666667 0  -0.5333333333333334 -1.866666666666667 0  -0.3999999999999999 -1.866666666666667 0  -0.2666666666666666 -1.866666666666667 0  -0.1333333333333333 -1.866666666666667 0  0 -1.866666666666667 0  0.1333333333333333 -1.866666666666667 0  0.2666666666666666 -1.866666666666667 0  0.3999999999999999 -1.866666666666667 0  0.5333333333333332 -1.866666666666667 0  0.6666666666666665 -1.866666666666667 0  0.7999999999999998 -1.866666666666667 0  0.9333333333333331 -1.866666666666667 0  1.066666666666667 -1.866666666666667 0  1.2 -1.866666666666667 0  1.333333333333333 -1.866666666666667 0  1.466666666666667 -1.866666666666667 0  1.6 -1.866666666666667 0  1.733333333333333 -1.866666666666667 0  1.866666666666667 -1.866666666666667 0  2 -1.866666666666667 0  -2 -1.733333333333333 0  -1.866666666666667 -1.733333333333333 0  -1.733333333333333 -1.733333333333333 0  -1.6 -1.733333333333333 0  -1.466666666666667 -1.733333333333333 0  -1.333333333333333 -1.733333333333333 0  -1.2 -1.733333333333333 0  -1.066666666666667 -1.733333333333333 0  -0.9333333333333333 -1.733333333333333 0  -0.8 -1.733333333333333 0  -0.6666666666666667 -1.733333333333333 0  -0.5333333333333334 -1.733333333333333 0  -0.3999999999999999 -1.733333333333333 0  -0.2666666666666666 -1.733333333333333 0  -0.1333333333333333 -1.733333333333333 0  0 -1.733333333333333 0  0.1333333333333333 -1.733333333333333 0  0.2666666666666666 -1.733333333333333 0  0.3999999999999999 -1.733333333333333 0  0.5333333333333332 -1.733333333333333 0  0.6666666666666665 -1.733333333333333 0  0.7999999999999998 -1.733333333333333 0  0.9333333333333331 -1.733333333333333 0  1.066666666666667 -1.733333333333333 0  1.2 -1.733333333333333 0  1.333333333333333 -1.733333333333333 0  1.466666666666667 -1.733333333333333 0  1.6 -1.733333333333333 0  1.733333333333333 -1.733333333333333 0  1.866666666666667 -1.733333333333333 0  2 -1.733333333333333 0  -2 -1.6 0  -1.866666666666667 -1.6 0  -1.733333333333333 -1.6 0  -1.6 -1.6 0  -1.466666666666667 -1.6 0  -1.333333333333333 -1.6 0  -1.2 -1.6 0  -1.066666666666667 -1.6 0  -0.9333333333333333 -1.6 0  -0.8 -1.6 0  -0.6666666666666667 -1.6 0  -0.5333333333333334 -1.6 0  -0.3999999999999999 -1.6 0  -0.2666666666666666 -1.6 0  -0.1333333333333333 -1.6 0  0 -1.6 0  0.1333333333333333 -1.6 0  0.2666666666666666 -1.6 0  0.3999999999999999 -1.6 0  0.5333333333333332 -1.6 0  0.6666666666666665 -1.6 0  0.7999999999999998 -1.6 0  0.9333333333333331 -1.6 0  1.066666666666667 -1.6 0  1.2 -1.6 0  1.333333333333333 -1.6 0  1.466666666666667 -1.6 0  1.6 -1.6 0  1.733333333333333 -1.6 0  1.866666666666667 -1.6 0  2 -1.6 0  -2 -1.466666666666667 0  -1.866666666666667 -1.466666666666667 0  -1.733333333333333 -1.466666666666667 0  -1.6 -1.466666666666667 0  -1.466666666666667 -1.466666666666667 0  -1.333333333333333 -1.466666666666667 0  -1.2 -1.466666666666667 0  -1.066666666666667 -1.466666666666667 0  -0.9333333333333333 -1.466666666666667 0  -0.8 -1.466666666666667 0  -0.6666666666666667 -1.466666666666667 0  -0.5333333333333334 -1.466666666666667 0  -0.3999999999999999 -1.466666666666667 0  -0.2666666666666666 -1.466666666666667 0  -0.1333333333333333 -1.466666666666667 0  0 -1.466666666666667 0  0.1333333333333333 -1.466666666666667 0  0.2666666666666666 -1.466666666666667 0  0.3999999999999999 -1.466666666666667 0  0.5333333333333332 -1.466666666666667 0  0.6666666666666665 -1.466666666666667 0  0.7999999999999998 -1.466666666666667 0  0.9333333333333331 -1.466666666666667 0  1.066666666666667 -1.466666666666667 0  1.2 -1.466666666666667 0  1.333333333333333 -1.466666666666667 0  1.466666666666667 -1.466666666666667 0  1.6 -1.466666666666667 0  1.733333333333333 -1.466666666666667 0  1.866666666666667 -1.466666666666667 0  2 -1.466666666666667 0  -2 -1.333333333333333 0  -1.866666666666667 -1.333333333333333 0  -1.733333333333333 -1.333333333333333 0  -1.6 -1.333333333333333 0  -1.466666666666667 -1.333333333333333 0  -1.333333333333333 -1.333333333333333 0  -1.2 -1.333333333333333 0  -1.066666666666667 -1.333333333333333 0  -0.9333333333333333 -1.333333333333333 0  -0.8 -1.333333333333333 0  -0.6666666666666667 -1.333333333333333 0  -0.5333333333333334 -1.333333333333333 0  -0.3999999999999999 -1.333333333333333 0  -0.2666666666666666 -1.333333333333333 0  -0.1333333333333333 -1.333333333333333 0  0 -1.333333333333333 0  0.1333333333333333 -1.333333333333333 0  0.2666666666666666 -1.333333333333333 0  0.3999999999999999 -1.333333333333333 0  0.5333333333333332 -1.333333333333333 0  0.6666666666666665 -1.333333333333333 0  0.7999999999999998 -1.333333333333333 0  0.9333333333333331 -1.333333333333333 0  1.066666666666667 -1.333333333333333 0  1.2 -1.333333333333333 0  1.333333333333333 -1.333333333333333 0  1.466666666666667 -1.333333333333333 0  1.6 -1.333333333333333 0  1.733333333333333 -1.333333333333333 0  1.866666666666667 -1.333333333333333 0  2 -1.333333333333333 0  -2 -1.2 0  -1.866666666666667 -1.2 0  -1.733333333333333 -1.2 0  -1.6 -1.2 0  -1.466666666666667 -1.2 0  -1.333333333333333 -1.2 0  -1.2 -1.2 0  -1.066666666666667 -1.2 0  -0.9333333333333333 -1.2 0  -0.8 -1.2 0  -0.6666666666666667 -1.2 0  -0.5333333333333334 -1.2 0  -0.3999999999999999 -1.2 0  -0.2666666666666666 -1.2 0  -0.1333333333333333 -1.2 0  0 -1.2 0  0.1333333333333333 -1.2 0  0.2666666666666666 -1.2 0  0.3999999999999999 -1.2 0  0.5333333333333332 -1.2 0  0.6666666666666665 -1.2 0  0.7999999999999998 -1.2 0  0.9333333333333331 -1.2 0  1.066666666666667 -1.2 0  1.2 -1.2 0  1.333333333333333 -1.2 0  1.466666666666667 -1.2 0  1.6 -1.2 0  1.733333333333333 -1.2 0  1.866666666666667 -1.2 0  2 -1.2 0  -2 -1.066666666666667 0  -1.866666666666667 -1.066666666666667 0  -1.733333333333333 -1.066666666666667 0  -1.6 -1.066666666666667 0  -1.466666666666667 -1.066666666666667 0  -1.333333333333333 -1.066666666666667 0  -1.2 -1.066666666666667 0  -1.066666666666667 -1.066666666666667 0  -0.9333333333333333 -1.066666666666667 0  -0.8 -1.066666666666667 0  -0.6666666666666667 -1.066666666666667 0  -0.5333333333333334 -1.066666666666667 0  -0.3999999999999999 -1.066666666666667 0  -0.2666666666666666 -1.066666666666667 0  -0.1333333333333333 -1.066666666666667 0  0 -1.066666666666667 0  0.1333333333333333 -1.066666666666667 0  0.2666666666666666 -1.066666666666667 0  0.3999999999999999 -1.066666666666667 0  0.5333333333333332 -1.066666666666667 0  0.6666666666666665 -1.066666666666667 0  0.7999999999999998 -1.066666666666667 0  0.9333333333333331 -1.066666666666667 0  1.066666666666667 -1.066666666666667 0  1.2 -1.066666666666667 0  1.333333333333333 -1.066666666666667 0  1.466666666666667 -1.066666666666667 0  1.6 -1.066666666666667 0  1.733333333333333 -1.066666666666667 0  1.866666666666667 -1.066666666666667 0  2 -1.066666666666667 0  -2 -0.9333333333333333 0  -1.866666666666667 -0.9333333333333333 0  -1.733333333333333 -0.9333333333333333 0  -1.6 -0.9333333333333333 0  -1.466666666666667 -0.9333333333333333 0  -1.333333333333333 -0.9333333333333333 0  -1.2 -0.9333333333333333 0  -1.066666666666667 -0.9333333333333333 0  -0.9333333333333333 -0.9333333333333333 0  -0.8 -0.9333333333333333 0  -0.6666666666666667 -0.9333333333333333 0  -0.5333333333333334 -0.9333333333333333 0  -0.3999999999999999 -0.9333333333333333 0  -0.2666666666666666 -0.9333333333333333 0  -0.1333333333333333 -0.9333333333333333 0  0 -0.9333333333333333 0  0.1333333333333333 -0.9333333333333333 0  0.2666666666666666 -0.9333333333333333 0  0.3999999999999999 -0.9333333333333333 0  0.5333333333333332 -0.9333333333333333 0  0.6666666666666665 -0.9333333333333333 0  0.7999999999999998 -0.9333333333333333 0  0.9333333333333331 -0.9333333333333333 0  1.066666666666667 -0.9333333333333333 0  1.2 -0.9333333333333333 0  1.333333333333333 -0.9333333333333333 0  1.466666666666667 -0.9333333333333333 0  1.6 -0.9333333333333333 0  1.733333333333333 -0.9333333333333333 0  1.866666666666667 -0.9333333333333333 0  2 -0.9333333333333333 0  -2 -0.8 0  -1.866666666666667 -0.8 0  -1.733333333333333 -0.8 0  -1.6 -0.8 0  -1.466666666666667 -0.8 0  -1.333333333333333 -0.8 0  -1.2 -0.8 0  -1.066666666666667 -0.8 0  -0.9333333333333333 -0.8 0  -0.8 -0.8 0  -0.6666666666666667 -0.8 0  -0.5333333333333334 -0.8 0  -0.3999999999999999 -0.8 0  -0.2666666666666666 -0.8 0  -0.1333333333333333 -0.8 0  0 -0.8 0  0.1333333333333333 -0.8 0  0.2666666666666666 -0.8 0  0.3999999999999999 -0.8 0  0.5333333333333332 -0.8 0  0.6666666666666665 -0.8 0  0.7999999999999998 -0.8 0  0.9333333333333331 -0.8 0  1.066666666666667 -0.8 0  1.2 -0.8 0  1.333333333333333 -0.8 0  1.466666666666667 -0.8 0  1.6 -0.8 0  1.733333333333333 -0.8 0  1.866666666666667 -0.8 0  2 -0.8 0  -2 -0.6666666666666667 0  -1.866666666666667 -0.
[...]
<PointData  Scalars="f_12"> 
<DataArray  type="Float64"  Name="f_12"  format="ascii">0.0000000000000000e+00  0.0000000000000000e+00  0.0000000000000000e+00  0.0000000000000000e+00  0.0000000000000000e+00  0.0000000000000000e+00  0.0000000000000000e+00  0.0000000000000000e+00  0.0000000000000000e+00  0.0000000000000000e+00  0.0000000000000000e+00  0.0000000000000000e+00  0.0000000000000000e+00  0.0000000000000000e+00  0.0000000000000000e+00  0.0000000000000000e+00  0.0000000000000000e+00  0.0000000000000000e+00  0.0000000000000000e+00  0.0000000000000000e+00  0.0000000000000000e+00  0.0000000000000000e+00  0.0000000000000000e+00  0.0000000000000000e+00  0.0000000000000000e+00  0.0000000000000000e+00  0.0000000000000000e+00  0.0000000000000000e+00  0.0000000000000000e+00  0.0000000000000000e+00  0.0000000000000000e+00  0.0000000000000000e+00  5.5941372149650569e-04  1.1187007543253561e-03  1.6771488024411251e-03  2.2329154388971433e-03  2.7826425262087867e-03  3.3212237726470205e-03  3.8417592345086214e-03  4.3357124503607593e-03  4.7932663752622805e-03  5.2038538978110924e-03  5.5568192480243313e-03  5.8421503521449781e-03  6.0512115188034272e-03  6.1774026674808243e-03  6.2166766686125386e-03  6.1678600927339098e-03  6.0327433133810539e-03  5.8159309041339539e-03  5.5244693281331012e-03  5.1672925961290216e-03  4.7545448561885414e-03  4.2968496837168290e-03  3.8045982780644401e-03  3.2873231948149150e-03  2.7532120455489514e-03  2.2087988569398647e-03  1.6588518485698711e-03  1.1064575590871433e-03  5.5328472329931489e-04  0.0000000000000000e+00  0.0000000000000000e+00  1.1187007543253557e-03  2.2370928834001698e-03  3.3538054964332193e-03  4.4652055676537017e-03  5.5646218360012887e-03  6.6418763620645872e-03  7.6831904747848723e-03  8.6714967365416340e-03  9.5871496702763983e-03  1.0408987156322640e-02  1.1115655302358810e-02  1.1687076871098575e-02  1.2105921760382983e-02  1.2358931446763833e-02  1.2437959841529365e-02  1.2340620384777677e-02  1.2070470541869214e-02  1.1636715024466908e-02  1.1053461435636361e-02  1.0338609702112202e-02  9.5124935288350421e-03  8.5964139568981725e-03  7.6112101171016680e-03  6.5760011406807055e-03  5.5072087157749918e-03  4.4179361415005907e-03  3.3177416413510386e-03  2.2128056476100567e-03  1.1064575590871435e-03  0.0000000000000000e+00  0.0000000000000000e+00  1.6771488024411253e-03  3.3538054964332219e-03  5.0280167318186957e-03  6.6944342316120637e-03  8.3431363149435098e-03  9.9589167422064560e-03  1.1521137780380417e-02  1.3004194679186946e-02  1.4378581114541914e-02  1.5612483890629881e-02  1.6673776237427839e-02  1.7532229523098040e-02  1.8161730334496785e-02  1.8542279580059558e-02  1.8661565805461133e-02  1.8515945930946541e-02  1.8110728832894940e-02  1.7459732861314109e-02  1.6584167535053058e-02  1.5510961780464750e-02  1.4270716945229424e-02  1.2895495980273834e-02  1.1416667870359911e-02  9.8630096410683779e-03  8.2592313111420224e-03  6.6250383191082318e-03  4.9747883341033977e-03  3.3177416413510390e-03  1.6588518485698717e-03  0.0000000000000000e+00  0.0000000000000000e+00  2.2329154388971433e-03  4.4652055676537043e-03  6.6944342316120680e-03  8.9136335206114470e-03  1.1109713189974276e-02  1.3262498978821797e-02  1.5344527288198670e-02  1.7321659094059430e-02  1.9154499760135727e-02  2.0800529689095057e-02  2.2216771695854096e-02  2.3362754285636854e-02  2.4203485454414125e-02  2.4712137256644541e-02  2.4872161716015560e-02  2.4678613326912183e-02  2.4138536725208642e-02  2.3270379724304353e-02  2.2102498386978191e-02  2.0670917949499434e-02  1.9016588741213685e-02  1.7182421011444488e-02  1.5210393019087887e-02  1.3139004239396929e-02  1.1001295812273113e-02  8.8235919320952989e-03  6.6250383191082335e-03  4.4179361415005924e-03  2.2087988569398664e-03  0.0000000000000000e+00  0.0000000000000000e+00  2.7826425262087858e-03  5.5646218360012904e-03  8.3431363149435080e-03  1.1109713189974276e-02  1.3848199247344600e-02  1.6533541759714981e-02  1.9131518870572392e-02  2.1599498656786127e-02  2.3888211203296140e-02  2.5944415731583653e-02  2.7714245422334440e-02  2.9146928309473030e-02  3.0198525924538082e-02  3.0835312533097649e-02  3.1036442680304137e-02  3.0795623048403577e-02  3.0121609270110577e-02  2.9037476301773068e-02  2.7578745276801434e-02  2.5790572461661429e-02  2.3724301168381073e-02  2.1433734126609642e-02  1.8971497082271509e-02  1.6385836007980211e-02  1.3718127529437704e-02  1.1001295812273116e-02  8.2592313111420259e-03  5.5072087157749952e-03  2.7532120455489532e-03  0.0000000000000000e+00  0.0000000000000000e+00  3.3212237726470166e-03  6.6418763620645794e-03  9.9589167422064473e-03  1.3262498978821783e-02  1.6533541759714970e-02  1.9742247416196509e-02  2.2847762393547660e-02  2.5799075528135582e-02  2.8537136927339023e-02  3.0998057375748900e-02  3.3117128305968663e-02  3.4833300267563781e-02  3.6093688618645828e-02  3.6857651468508640e-02  3.7100014000200826e-02  3.6813095031695789e-02  3.6007317644233761e-02  3.4710340206685945e-02  3.2964806606027575e-02  3.0824963117143181e-02  2.8352504801599308e-02  2.5612083059608722e-02  2.2666922100546473e-02  1.9574957751005366e-02  1.6385836007980201e-02  1.3139004239396922e-02  9.8630096410683710e-03  6.5760011406807038e-03  3.2873231948149155e-03  0.0000000000000000e+00  0.0000000000000000e+00  3.8417592345086201e-03  7.6831904747848715e-03  1.1521137780380412e-02  1.5344527288198651e-02  1.9131518870572375e-02  2.2847762393547664e-02  2.6445983523901387e-02  2.9867013187780726e-02  3.3042242859810014e-02  3.5897344659213272e-02  3.8356954974044788e-02  4.0349900323595554e-02  4.1814462213455590e-02  4.2703148825008544e-02  4.2986474300438303e-02  4.2655341181395405e-02  4.1721768572548348e-02  4.0217889478407667e-02  3.8193331362935255e-02  3.5711268567498393e-02  3.2843570985748673e-02  2.9665554293313526e-02  2.6250856099646020e-02  2.2666922100546456e-02  1.8971497082271482e-02  1.5210393019087866e-02  1.1416667870359890e-02  7.6112101171016567e-03  3.8045982780644375e-03  0.0000000000000000e+00  0.0000000000000000e+00  4.3357124503607585e-03  8.6714967365416340e-03  1.3004194679186950e-02  1.7321659094059430e-02  2.1599498656786124e-02  2.5799075528135592e-02  2.9867013187780737e-02  3.3736346561159446e-02  3.7329296952141766e-02  4.0561491412665442e-02  4.3347286054077727e-02  4.5605715158046664e-02  4.7266493240706239e-02  4.8275462820975591e-02  4.8598916881712605e-02  4.8226332225611963e-02  4.7171217273693708e-02  4.5469984427199135e-02  4.3178975253542293e-02  4.0369966869707709e-02  3.7124643694145532e-02  3.3528611693794147e-02  2.9665554293313530e-02  2.5612083059608708e-02  2.1433734126609615e-02  1.7182421011444467e-02  1.2895495980273817e-02  8.5964139568981603e-03  4.2968496837168246e-03  0.0000000000000000e+00  0.0000000000000000e+00  4.7932663752622787e-03  9.5871496702763983e-03  1.4378581114541912e-02  1.9154499760135731e-02  2.3888211203296136e-02  2.8537136927339023e-02  3.3042242859810035e-02  3.7329296952141759e-02  4.1311939533220522e-02  4.4896368768469329e-02  4.7987264551673535e-02  5.0494419584695881e-02  5.2339439264643996e-02  5.3461831967144678e-02  5.3823850279591641e-02  5.3413562393537992e-02  5.2245819312191660e-02  5.0361014467049624e-02  4.7821776752576928e-02  4.4707962576587365e-02  4.1110487624825484e-02  3.7124643694145601e-02  3.2843570985748742e-02  2.8352504801599350e-02  2.3724301168381097e-02  1.9016588741213702e-02  1.4270716945229439e-02  9.5124935288350507e-03  4.7545448561885448e-03  0.0000000000000000e+00  0.0000000000000000e+00  5.2038538978110881e-03  1.0408987156322632e-02  1.5612483890629870e-02  2.0800529689095053e-02  2.5944415731583643e-02  3.0998057375748907e-02  3.5897344659213286e-02  4.0561491412665449e-02  4.4896368768469350e-02  4.8799610574727745e-02  5.2167081899889813e-02  5.4900131542900049e-02  5.6912930601635853e-02  5.8139153537280101e-02  5.8537299198296262e-02  5.8094078044311791e-02  5.6825495542971033e-02  5.4775514945128501e-02  5.2012451282009035e-02  4.8623495724747362e-02  4.4707962576587448e-02  4.0369966869707861e-02  3.5711268567498532e-02  3.0824963117143264e-02  2.5790572461661485e-02  2.0670917949499479e-02  1.5510961780464782e-02  1.0338609702112226e-02  5.1672925961290337e-03  0.0000000000000000e+00  0.0000000000000000e+00  5.5568192480243252e-03  1.1115655302358800e-02  1.6673776237427822e-02  2.2216771695854089e-02  2.7714245422334437e-02  3.3117128305968670e-02  3.8356954974044788e-02  4.3347286054077734e-02  4.7987264551673563e-02  5.2167081899889799e-02  5.5774917739688568e-02  5.8704733304328481e-02  6.0864168824926089e-02  6.2181744437875636e-02  6.2612606443459798e-02  6.2142198001292566e-02  6.0787451953433880e-02  5.8595376145850121e-02  5.5639191591322940e-02  5.2012451282009126e-02  4.7821776752577101e-02  4.3178975253542522e-02  3.8193331362935450e-02  3.2964806606027700e-02  2.7578745276801514e-02  2.2102498386978260e-02  1.6584167535053113e-02  1.1053461435636401e-02  5.5244693281331202e-03  0.0000000000000000e+00  0.0000000000000000e+00  5.8421503521449711e-03  1.1687076871098552e-02  1.7532229523098009e-02  2.3362754285636826e-02  2.9146928309472991e-02  3.4833300267563753e-02  4.0349900323595547e-02  4.5605715158046678e-02  5.0494419584695908e-02  5.4900131542900042e-02  5.8704733304328481e-02  6.1796105957636800e-02  6.4076485754519505e-02  6.5470095144758766e-02  6.5929244300404241e-02  6.5438242658597767e-02  6.4014690512779859e-02  6.1708009214640265e-02  5.8595376145850114e-02  5.4775514945128570e-02  5.0361014467049763e-02  4.5469984427199343e-02  4.0217889478407848e-02  3.4710340206686063e-02  2.9037476301773144e-02  2.3270379724304423e-02  1.7459732861314164e-02  1.1636715024466946e-02  5.8159309041339721e-03  0.0000000000000000e+00  0.0000000000000000e+00  6.0512115188034203e-03  1.2105921760382953e-02  1.8161730334496737e-02  2.4203485454414069e-02  3.0198525924538023e-02  3.6093688618645779e-02  4.1814462213455597e-02  4.7266493240706267e-02  5.2339439264644023e-02  5.6912930601635874e-02  6.0864168824926096e-02  6.4076485754519547e-02  6.6448041101808825e-02  6.7899777105550355e-02  6.8381791346873222e-02  6.7877436945915609e-02  6.6404698281707475e-02  6.4014690512779762e-02  6.0787451953433776e-02  5.6825495542971047e-02  5.2245819312191744e-02  4.7171217273693888e-02  4.1721768572548494e-02  3.6007317644233872e-02  3.0121609270110646e-02  2.4138536725208694e-02  1.8110728832894982e-02  1.2070470541869245e-02  6.0327433133810712e-03  0.0000000000000000e+00  0.0000000000000000e+00  6.1774026674808148e-03  1.2358931446763800e-02  1.8542279580059495e-02  2.4712137256644482e-02  3.0835312533097580e-02  3.6857651468508598e-02  4.2703148825008516e-02  4.8275462820975591e-02  5.3461831967144699e-02  5.8139153537280081e-02  6.2181744437875601e-02  6.5470095144758766e-02  6.7899777105550327e-02  6.9389601057307265e-02  6.9888165759344201e-02  6.9378086579705373e-02  6.7877436945915512e-02  6.5438242658597642e-02  6.2142198001292420e-02  5.8094078044311749e-02  5.3413562393538047e-02  4.8226332225612109e-02  4.2655341181395544e-02  3.6813095031695872e-02  3.0795623048403636e-02  2.4678613326912225e-02  1.8515945930946579e-02  1.2340620384777706e-02  6.1678600927339245e-03  0.0000000000000000e+00  0.0000000000000000e+00  6.2166766686125230e-03  1.2437959841529336e-02  1.8661565805461078e-02  2.4872161716015508e-02  3.1036442680304071e-02  3.7100014000200784e-02  4.2986474300438254e-02  4.8598916881712542e-02  5.3823850279591551e-02  5.8537299198296193e-02  6.2612606443459687e-02  6.5929244300404158e-02  6.8381791346873125e-02  6.9888165759344145e-02  7.0396246817682334e-02  6.9888165759344145e-02  6.8381791346873097e-02  6.5929244300404061e-02  6.2612606443459645e-02  5.8537299198296221e-02  5.3823850279591690e-02  4.8598916881712730e-02  4.2986474300438414e-02  3.7100014000200909e-02  3.1036442680304182e-02  2.4872161716015598e-02  1.8661565805461158e-02  1.2437959841529391e-02  6.2166766686125533e-03  0.0000000000000000e+00  0.0000000000000000e+00  6.1678600927338951e-03  1.2340620384777651e-02  1.8515945930946506e-02  2.4678613326912128e-02  3.0795623048403515e-02  3.6813095031695747e-02  4.2655341181395356e-02  4.8226332225611894e-02  5.3413562393537874e-02  5.8094078044311666e-02  6.2142198001292392e-02  6.5438242658597615e-02  6.7877436945915456e-02  6.9378086579705234e-02  6.9888165759344117e-02  6.9389601057307182e-02  6.7899777105550202e-02  6.5470095144758600e-02  6.2181744437875504e-02  5.8139153537280081e-02  5.3461831967144727e-02  4.8275462820975730e-02  4.2703148825008655e-02  3.6857651468508702e-02  3.0835312533097695e-02  2.4712137256644583e-02  1.8542279580059585e-02  1.2358931446763855e-02  6.1774026674808408e-03  0.0000000000000000e+00  0.0000000000000000e+00  6.0327433133810400e-03  1.2070470541869190e-02  1.8110728832894898e-02  2.4138536725208593e-02  3.0121609270110525e-02  3.6007317644233733e-02  4.1721768572548314e-02  4.7171217273693646e-02  5.2245819312191528e-02  5.6825495542970887e-02  6.0787451953433658e-02  6.4014690512779665e-02  6.6404698281707308e-02  6.7877436945915373e-02  6.8381791346873014e-02  6.7899777105550174e-02  6.6448041101808644e-02  6.4076485754519352e-02  6.0864168824925943e-02  5.6912930601635860e-02  5.2339439264644044e-02  4.7266493240706350e-02  4.1814462213455708e-02  3.6093688618645904e-02  3.0198525924538134e-02  2.4203485454414166e-02  1.8161730334496810e-02  1.2105921760383002e-02  6.0512115188034402e-03  0.0000000000000000e+00  0.0000000000000000e+00  5.8159309041339417e-03  1.1636715024466887e-02  1.7459732861314074e-02  2.3270379724304315e-02  2.9037476301773026e-02  3.4710340206685918e-02  4.0217889478407633e-02  4.5469984427199080e-02  5.0361014467049540e-02  5.4775514945128362e-02  5.8595376145849934e-02  6.1708009214640092e-02  6.4014690512779596e-02  6.5438242658597490e-02  6.5929244300403977e-02  6.5470095144758544e-02  6.4076485754519311e-02  6.1796105957636606e-02  5.8704733304328342e-02  5.4900131542900001e-02  5.0494419584695922e-02  4.5605715158046775e-02  4.0349900323595651e-02  3.4833300267563858e-02  2.9146928309473085e-02  2.3362754285636892e-02  1.7532229523098068e-02  1.1687076871098590e-02  5.8421503521449867e-03  0.0000000000000000e+00  0.0000000000000000e+00  5.5244693281330907e-03  1.1053461435636342e-02  1.6584167535053027e-02  2.2102498386978160e-02  2.7578745276801393e-02  3.2964806606027554e-02  3.8193331362935234e-02  4.3178975253542258e-02  4.7821776752576858e-02  5.2012451282008931e-02  5.5639191591322711e-02  5.8595376145849913e-02  6.0787451953433533e-02  6.2142198001292240e-02  6.2612606443459534e-02  6.2181744437875407e-02  6.0864168824925881e-02  5.8704733304328273e-02  5.5774917739688401e-02  5.2167081899889722e-02  4.7987264551673556e-02  4.3347286054077845e-02  3.8356954974044920e-02  3.3117128305968774e-02  2.7714245422334506e-02  2.2216771695854128e-02  1.6673776237427856e-02  1.1115655302358824e-02  5.5568192480243391e-03  0.0000000000000000e+00  0.0000000000000000e+00  5.1672925961290120e-03  1.0338609702112185e-02  1.5510961780464717e-02  2.0670917949499393e-02  2.5790572461661377e-02  3.0824963117143143e-02  3.5711268567498358e-02  4.0369966869707639e-02  4.4707962576587261e-02  4.8623495724747216e-02  5.2012451282008924e-02  5.4775514945128369e-02  5.6825495542970825e-02  5.8094078044311555e-02  5.8537299198296061e-02  5.8139153537279907e-02  5.6912930601635693e-02  5.4900131542899876e-02  5.2167081899889695e-02  4.8799610574727738e-02  4.4896368768469384e-02  4.0561491412665601e-02  3.5897344659213438e-02  3.0998057375749000e-02  2.5944415731583726e-02  2.0800529689095112e-02  1.5612483890629915e-02  1.0408987156322665e-02  5.2038538978111046e-03  0.0000000000000000e+00  0.0000000000000000e+00  4.7545448561885292e-03  9.5124935288350195e-03  1.4270716945229394e-02  1.9016588741213637e-02  2.3724301168381007e-02  2.8352504801599256e-02  3.2843570985748617e-02  3.7124643694145448e-02  4.1110487624825345e-02  4.4707962576587275e-02  4.7821776752576886e-02  5.0361014467049589e-02  5.2245819312191528e-02  5.3413562393537839e-02  5.3823850279591481e-02  5.3461831967144526e-02  5.2339439264643885e-02  5.0494419584695770e-02  4.7987264551673459e-02  4.4896368768469364e-02  4.1311939533220605e-02  3.7329296952141919e-02  3.3042242859810167e-02  2.8537136927339116e-02  2.3888211203296206e-02  1.9154499760135790e-02  1.4378581114541952e-02  9.5871496702764260e-03  4.7932663752622935e-03  0.0000000000000000e+00  0.0000000000000000e+00  4.2968496837168134e-03  8.5964139568981395e-03  1.2895495980273789e-02  1.7182421011444425e-02  2.1433734126609566e-02  2.5612083059608642e-02  2.9665554293313426e-02  3.3528611693794015e-02  3.7124643694145434e-02  4.0369966869707674e-02  4.3178975253542307e-02  4.5469984427199142e-02  4.7171217273693666e-02  4.8226332225611887e-02  4.8598916881712508e-02  4.8275462820975529e-02  4.7266493240706170e-02  4.5605715158046588e-02  4.3347286054077686e-02  4.0561491412665476e-02  3.7329296952141863e-02  3.3736346561159571e-02  2.9867013187780844e-02  2.5799075528135679e-02  2.1599498656786204e-02  1.7321659094059493e-02  1.3004194679186992e-02  8.6714967365416635e-03  4.3357124503607750e-03  0.0000000000000000e+00  0.0000000000000000e+00  3.8045982780644241e-03  7.6112101171016333e-03  1.1416667870359856e-02  1.5210393019087819e-02  1.8971497082271423e-02  2.2666922100546386e-02  2.6250856099645909e-02  2.9665554293313398e-02  3.2843570985748582e-02  3.5711268567498351e-02  3.8193331362935262e-02  4.0217889478407681e-02  4.1721768572548328e-02  4.2655341181395343e-02  4.2986474300438213e-02  4.2703148825008468e-02  4.1814462213455535e-02  4.0349900323595464e-02  3.8356954974044732e-02  3.5897344659213300e-02  3.3042242859810077e-02  2.9867013187780823e-02  2.6445983523901460e-02  2.2847762393547719e-02  1.9131518870572430e-02  1.5344527288198696e-02  1.1521137780380443e-02  7.6831904747848932e-03  3.8417592345086314e-03  0.0000000000000000e+00  0.0000000000000000e+00  3.2873231948149025e-03  6.5760011406806804e-03  9.8630096410683363e-03  1.3139004239396875e-02  1.6385836007980145e-02  1.9574957751005297e-02  2.2666922100546372e-02  2.5612083059608600e-02  2.8352504801599218e-02  3.0824963117143132e-02  3.2964806606027561e-02  3.4710340206685932e-02  3.6007317644233726e-02  3.6813095031695740e-02  3.7100014000200757e-02  3.6857651468508557e-02  3.6093688618645765e-02  3.4833300267563712e-02  3.3117128305968621e-02  3.0998057375748903e-02  2.8537136927339064e-02  2.5799075528135658e-02  2.2847762393547719e-02  1.9742247416196550e-02  1.6533541759715008e-02  1.3262498978821811e-02  9.9589167422064681e-03  6.6418763620645976e-03  3.3212237726470244e-03  0.0000000000000000e+00  0.0000000000000000e+00  2.7532120455489415e-03  5.5072087157749727e-03  8.2592313111419929e-03  1.1001295812273073e-02  1.3718127529437659e-02  1.6385836007980145e-02  1.8971497082271419e-02  2.1433734126609538e-02  2.3724301168380996e-02  2.5790572461661380e-02  2.7578745276801413e-02  2.9037476301773047e-02  3.0121609270110556e-02  3.0795623048403536e-02  3.1036442680304071e-02  3.0835312533097584e-02  3.0198525924538033e-02  2.9146928309472978e-02  2.7714245422334402e-02  2.5944415731583660e-02  2.3888211203296181e-02  2.1599498656786183e-02  1.9131518870572430e-02  1.6533541759715012e-02  1.3848199247344628e-02  1.1109713189974297e-02  8.3431363149435236e-03  5.5646218360013008e-03  2.7826425262087924e-03  0.0000000000000000e+00  0.0000000000000000e+00  2.2087988569398573e-03  4.4179361415005759e-03  6.6250383191082092e-03  8.8235919320952677e-03  1.1001295812273078e-02  1.3139004239396887e-02  1.5210393019087821e-02  1.7182421011444411e-02  1.9016588741213637e-02  2.0670917949499403e-02  2.2102498386978180e-02  2.3270379724304339e-02  2.4138536725208600e-02  2.4678613326912142e-02  2.4872161716015515e-02  2.4712137256644496e-02  2.4203485454414086e-02  2.3362754285636812e-02  2.2216771695854065e-02  2.0800529689095053e-02  1.9154499760135762e-02  1.7321659094059479e-02  1.5344527288198699e