<?xml version="1.0"?>
<VTKFile type="UnstructuredGrid"  version="0.1"  >
<UnstructuredGrid>
<Piece  NumberOfPoints="961" NumberOfCells="1800">
<Points>
<DataArray  type="Float64"  NumberOfComponents="3"  format="ascii">-2 -2 0  -1.866666666666667 -2 0  -1.733333333333333 -2 0  -1.6 -2 0  -1.466666666666667 -2 0  -1.333333333333333 -2 0  -1.2 -2 0  -1.066666666666667 -2 0  -0.9333333333333333 -2 0  -0.8 -2 0  -0.6666666666666667 -2 0  -0.5333333333333334 -2 0  -0.3999999999999999 -2 0  -0.2666666666666666 -2 0  -0.1333333333333333 -2 0  0 -2 0  0.1333333333333333 -2 0  0.2666666666666666 -2 0  0.3999999999999999 -2 0  0.5333333333333332 -2 0  0.6666666666666665 -2 0  0.7999999999999998 -2 0  0.9333333333333331 -2 0  1.066666666666667 -2 0  1.2 -2 0  1.333333333333333 -2 0  1.466666666666667 -2 0  1.6 -2 0  1.733333333333333 -2 0  1.866666666666667 -2 0  2 -2 0  -2 -1.866666666666667 0  -1.866666666666667 -1.866666666666667 0  -1.733333333333333 -1.866666666666667 0  -1.6 -1.866666666666667 0  -1.466666666666667 -1.866666666666667 0  -1.333333333333333 -1.866666666666667 0  -1.2 -1.866666666666667 0  -1.066666666666667 -1.866666666666667 0  -0.9333333333333333 -1.866666666666667 0  -0.8 -1.866666666666667 0  -0.6666666666666667 -1.866666666666667 0  -0.5333333333333334 -1.866666666666667 0  -0.3999999999999999 -1.866666666666667 0  -0.2666666666666666 -1.866666666666667 0  -0.1333333333333333 -1.866666666666667 0  0 -1.866666666666667 0  0.1333333333333333 -1.866666666666667 0  0.2666666666666666 -1.866666666666667 0  0.3999999999999999 -1.866666666666667 0  0.5333333333333332 -1.866666666666667 0  0.6666666666666665 -1.866666666666667 0  0.7999999999999998 -1.866666666666667 0  0.9333333333333331 -1.866666666666667 0  1.066666666666667 -1.866666666666667 0  1.2 -1.866666666666667 0  1.333333333333333 -1.866666666666667 0  1.466666666666667 -1.866666666666667 0  1.6 -1.866666666666667 0  1.733333333333333 -1.866666666666667 0  1.866666666666667 -1.866666666666667 0  2 -1.866666666666667 0  -2 -1.733333333333333 0  -1.866666666666667 -1.733333333333333 0  -1.733333333333333 -1.733333333333333 0  -1.6 -1.733333333333333 0  -1.466666666666667 -1.733333333333333 0  -1.333333333333333 -1.733333333333333 0  -1.2 -1.733333333333333 0  -1.066666666666667 -1.733333333333333 0  -0.9333333333333333 -1.733333333333333 0  -0.8 -1.733333333333333 0  -0.6666666666666667 -1.733333333333333 0  -0.5333333333333334 -1.733333333333333 0  -0.3999999999999999 -1.733333333333333 0  -0.2666666666666666 -1.733333333333333 0  -0.1333333333333333 -1.733333333333333 0  0 -1.733333333333333 0  0.1333333333333333 -1.733333333333333 0  0.2666666666666666 -1.733333333333333 0  0.3999999999999999 -1.733333333333333 0  0.5333333333333332 -1.733333333333333 0  0.6666666666666665 -1.733333333333333 0  0.7999999999999998 -1.733333333333333 0  0.9333333333333331 -1.733333333333333 0  1.066666666666667 -1.733333333333333 0  1.2 -1.733333333333333 0  1.333333333333333 -1.733333333333333 0  1.466666666666667 -1.733333333333333 0  1.6 -1.733333333333333 0  1.733333333333333 -1.733333333333333 0  1.866666666666667 -1.733333333333333 0  2 -1.733333333333333 0  -2 -1.6 0  -1.866666666666667 -1.6 0  -1.733333333333333 -1.6 0  -1.6 -1.6 0  -1.466666666666667 -1.6 0  -1.333333333333333 -1.6 0  -1.2 -1.6 0  -1.066666666666667 -1.6 0  -0.9333333333333333 -1.6 0  -0.8 -1.6 0  -0.6666666666666667 -1.6 0  -0.5333333333333334 -1.6 0  -0.3999999999999999 -1.6 0  -0.2666666666666666 -1.6 0  -0.1333333333333333 -1.6 0  0 -1.6 0  0.1333333333333333 -1.6 0  0.2666666666666666 -1.6 0  0.3999999999999999 -1.6 0  0.5333333333333332 -1.6 0  0.6666666666666665 -1.6 0  0.7999999999999998 -1.6 0  0.9333333333333331 -1.6 0  1.066666666666667 -1.6 0  1.2 -1.6 0  1.333333333333333 -1.6 0  1.466666666666667 -1.6 0  1.6 -1.6 0  1.733333333333333 -1.6 0  1.866666666666667 -1.6 0  2 -1.6 0  -2 -1.466666666666667 0  -1.866666666666667 -1.466666666666667 0  -1.733333333333333 -1.466666666666667 0  -1.6 -1.466666666666667 0  -1.466666666666667 -1.466666666666667 0  -1.333333333333333 -1.466666666666667 0  -1.2 -1.466666666666667 0  -1.066666666666667 -1.466666666666667 0  -0.9333333333333333 -1.466666666666667 0  -0.8 -1.466666666666667 0  -0.6666666666666667 -1.466666666666667 0  -0.5333333333333334 -1.466666666666667 0  -0.3999999999999999 -1.466666666666667 0  -0.2666666666666666 -1.466666666666667 0  -0.1333333333333333 -1.466666666666667 0  0 -1.466666666666667 0  0.1333333333333333 -1.466666666666667 0  0.2666666666666666 -1.466666666666667 0  0.3999999999999999 -1.466666666666667 0  0.5333333333333332 -1.466666666666667 0  0.6666666666666665 -1.466666666666667 0  0.7999999999999998 -1.466666666666667 0  0.9333333333333331 -1.466666666666667 0  1.066666666666667 -1.466666666666667 0  1.2 -1.466666666666667 0  1.333333333333333 -1.466666666666667 0  1.466666666666667 -1.466666666666667 0  1.6 -1.466666666666667 0  1.733333333333333 -1.466666666666667 0  1.866666666666667 -1.466666666666667 0  2 -1.466666666666667 0  -2 -1.333333333333333 0  -1.866666666666667 -1.333333333333333 0  -1.733333333333333 -1.333333333333333 0  -1.6 -1.333333333333333 0  -1.466666666666667 -1.333333333333333 0  -1.333333333333333 -1.333333333333333 0  -1.2 -1.333333333333333 0  -1.066666666666667 -1.333333333333333 0  -0.9333333333333333 -1.333333333333333 0  -0.8 -1.333333333333333 0  -0.6666666666666667 -1.333333333333333 0  -0.5333333333333334 -1.333333333333333 0  -0.3999999999999999 -1.333333333333333 0  -0.2666666666666666 -1.333333333333333 0  -0.1333333333333333 -1.333333333333333 0  0 -1.333333333333333 0  0.1333333333333333 -1.333333333333333 0  0.2666666666666666 -1.333333333333333 0  0.3999999999999999 -1.333333333333333 0  0.5333333333333332 -1.333333333333333 0  0.6666666666666665 -1.333333333333333 0  0.7999999999999998 -1.333333333333333 0  0.9333333333333331 -1.333333333333333 0  1.066666666666667 -1.333333333333333 0  1.2 -1.333333333333333 0  1.333333333333333 -1.333333333333333 0  1.466666666666667 -1.333333333333333 0  1.6 -1.333333333333333 0  1.733333333333333 -1.333333333333333 0  1.866666666666667 -1.333333333333333 0  2 -1.333333333333333 0  -2 -1.2 0  -1.866666666666667 -1.2 0  -1.733333333333333 -1.2 0  -1.6 -1.2 0  -1.466666666666667 -1.2 0  -1.333333333333333 -1.2 0  -1.2 -1.2 0  -1.066666666666667 -1.2 0  -0.9333333333333333 -1.2 0  -0.8 -1.2 0  -0.6666666666666667 -1.2 0  -0.5333333333333334 -1.2 0  -0.3999999999999999 -1.2 0  -0.2666666666666666 -1.2 0  -0.1333333333333333 -1.2 0  0 -1.2 0  0.1333333333333333 -1.2 0  0.2666666666666666 -1.2 0  0.3999999999999999 -1.2 0  0.5333333333333332 -1.2 0  0.6666666666666665 -1.2 0  0.7999999999999998 -1.2 0  0.9333333333333331 -1.2 0  1.066666666666667 -1.2 0  1.2 -1.2 0  1.333333333333333 -1.2 0  1.466666666666667 -1.2 0  1.6 -1.2 0  1.733333333333333 -1.2 0  1.866666666666667 -1.2 0  2 -1.2 0  -2 -1.066666666666667 0  -1.866666666666667 -1.066666666666667 0  -1.733333333333333 -1.066666666666667 0  -1.6 -1.066666666666667 0  -1.466666666666667 -1.066666666666667 0  -1.333333333333333 -1.066666666666667 0  -1.2 -1.066666666666667 0  -1.066666666666667 -1.066666666666667 0  -0.9333333333333333 -1.066666666666667 0  -0.8 -1.066666666666667 0  -0.6666666666666667 -1.066666666666667 0  -0.5333333333333334 -1.066666666666667 0  -0.3999999999999999 -1.066666666666667 0  -0.2666666666666666 -1.066666666666667 0  -0.1333333333333333 -1.066666666666667 0  0 -1.066666666666667 0  0.1333333333333333 -1.066666666666667 0  0.2666666666666666 -1.066666666666667 0  0.3999999999999999 -1.066666666666667 0  0.5333333333333332 -1.066666666666667 0  0.6666666666666665 -1.066666666666667 0  0.7999999999999998 -1.066666666666667 0  0.9333333333333331 -1.066666666666667 0  1.066666666666667 -1.066666666666667 0  1.2 -1.066666666666667 0  1.333333333333333 -1.066666666666667 0  1.466666666666667 -1.066666666666667 0  1.6 -1.066666666666667 0  1.733333333333333 -1.066666666666667 0  1.866666666666667 -1.066666666666667 0  2 -1.066666666666667 0  -2 -0.9333333333333333 0  -1.866666666666667 -0.9333333333333333 0  -1.733333333333333 -0.9333333333333333 0  -1.6 -0.9333333333333333 0  -1.466666666666667 -0.9333333333333333 0  -1.333333333333333 -0.9333333333333333 0  -1.2 -0.9333333333333333 0  -1.066666666666667 -0.9333333333333333 0  -0.9333333333333333 -0.9333333333333333 0  -0.8 -0.9333333333333333 0  -0.6666666666666667 -0.9333333333333333 0  -0.5333333333333334 -0.9333333333333333 0  -0.3999999999999999 -0.9333333333333333 0  -0.2666666666666666 -0.9333333333333333 0  -0.1333333333333333 -0.9333333333333333 0  0 -0.9333333333333333 0  0.1333333333333333 -0.9333333333333333 0  0.2666666666666666 -0.9333333333333333 0  0.3999999999999999 -0.9333333333333333 0  0.5333333333333332 -0.9333333333333333 0  0.6666666666666665 -0.9333333333333333 0  0.7999999999999998 -0.9333333333333333 0  0.9333333333333331 -0.9333333333333333 0  1.066666666666667 -0.9333333333333333 0  1.2 -0.9333333333333333 0  1.333333333333333 -0.9333333333333333 0  1.466666666666667 -0.9333333333333333 0  1.6 -0.9333333333333333 0  1.733333333333333 -0.9333333333333333 0  1.866666666666667 -0.9333333333333333 0  2 -0.9333333333333333 0  -2 -0.8 0  -1.866666666666667 -0.8 0  -1.733333333333333 -0.8 0  -1.6 -0.8 0  -1.466666666666667 -0.8 0  -1.333333333333333 -0.8 0  -1.2 -0.8 0  -1.066666666666667 -0.8 0  -0.9333333333333333 -0.8 0  -0.8 -0.8 0  -0.6666666666666667 -0.8 0  -0.5333333333333334 -0.8 0  -0.3999999999999999 -0.8 0  -0.2666666666666666 -0.8 0  -0.1333333333333333 -0.8 0  0 -0.8 0  0.1333333333333333 -0.8 0  0.2666666666666666 -0.8 0  0.3999999999999999 -0.8 0  0.5333333333333332 -0.8 0  0.6666666666666665 -0.8 0  0.7999999999999998 -0.8 0  0.9333333333333331 -0.8 0  1.066666666666667 -0.8 0  1.2 -0.8 0  1.333333333333333 -0.8 0  1.466666666666667 -0.8 0  1.6 -0.8 0  1.733333333333333 -0.8 0  1.866666666666667 -0.8 0  2 -0.8 0  -2 -0.6666666666666667 0  -1.866666666666667 -0.
[...]
<PointData  Scalars="f_12"> 
<DataArray  type="Float64"  Name="f_12"  format="ascii">0.0000000000000000e+00  0.0000000000000000e+00  0.0000000000000000e+00  0.0000000000000000e+00  0.0000000000000000e+00  0.0000000000000000e+00  0.0000000000000000e+00  0.0000000000000000e+00  0.0000000000000000e+00  0.0000000000000000e+00  0.0000000000000000e+00  0.0000000000000000e+00  0.0000000000000000e+00  0.0000000000000000e+00  0.0000000000000000e+00  0.0000000000000000e+00  0.0000000000000000e+00  0.0000000000000000e+00  0.0000000000000000e+00  0.0000000000000000e+00  0.0000000000000000e+00  0.0000000000000000e+00  0.0000000000000000e+00  0.0000000000000000e+00  0.0000000000000000e+00  0.0000000000000000e+00  0.0000000000000000e+00  0.0000000000000000e+00  0.0000000000000000e+00  0.0000000000000000e+00  0.0000000000000000e+00  0.0000000000000000e+00  5.0753595088724854e-04  1.0111669353631365e-03  1.5075749092563517e-03  1.9929766292718911e-03  2.4630856747473173e-03  2.9130898740848113e-03  3.3376845471820705e-03  3.7311740588053155e-03  4.0876405617169135e-03  4.4011696058472846e-03  4.6661153299811658e-03  4.8773830448530812e-03  5.0307044163112559e-03  5.1228803929276468e-03  5.1519695245493425e-03  5.1174041573672727e-03  5.0200236774429604e-03  4.8620218039256728e-03  4.6468130668879861e-03  4.3788311720273330e-03  4.0632781594555798e-03  3.7058474810434932e-03  3.3124459665651038e-03  2.8889390203721268e-03  2.4409404759724203e-03  1.9736638174753830e-03  1.4918457879870223e-03  9.9974825900031312e-04  5.0124320907837187e-04  0.0000000000000000e+00  0.0000000000000000e+00  1.0111669353631359e-03  2.0148628306849358e-03  3.0042706133498564e-03  3.9717952595622573e-03  4.9088820788464058e-03  5.8059410373246427e-03  6.6524027467244349e-03  7.4369167866061032e-03  8.1476861988345577e-03  8.7729164265337289e-03  9.3013438804257983e-03  9.7227997484724531e-03  1.0028759522251688e-02  1.0212828571645849e-02  1.0271119061708788e-02  1.0202483132994830e-02  1.0008580591728662e-02  9.6937749781323603e-03  9.2648681275653080e-03  8.7306984697053374e-03  8.1016407320926489e-03  7.3890531702307831e-03  6.6047221605761569e-03  5.7603527422251423e-03  4.8671478140824287e-03  3.9355090321853093e-03  2.9748802807063432e-03  1.9937415044620280e-03  9.9974825900031334e-04  0.0000000000000000e+00  0.0000000000000000e+00  1.5075749092563521e-03  3.0042706133498577e-03  4.4798026380673279e-03  5.9228017857545796e-03  7.3205001369432551e-03  8.6585966290960020e-03  9.9213301458508010e-03  1.1091770185176958e-02  1.2152313365158514e-02  1.3085352311934325e-02  1.3874064537754017e-02  1.4503254838139624e-02  1.4960177098308063e-02  1.5235261163833514e-02  1.5322677802000006e-02  1.5220689127772399e-02  1.4931751760086738e-02  1.4462363323274113e-02  1.3822667215875451e-02  1.3025853229431825e-02  1.2087410222291962e-02  1.1024299749098885e-02  9.8541251390317393e-03  8.5943686487540746e-03  7.2617604489902303e-03  5.8718285049259361e-03  4.4386595575998875e-03  2.9748802807063436e-03  1.4918457879870230e-03  0.0000000000000000e+00  0.0000000000000000e+00  1.9929766292718903e-03  3.9717952595622573e-03  5.9228017857545796e-03  7.8309441546274127e-03  9.6793389527445456e-03  1.1449079972294189e-02  1.3119326191249914e-02  1.4667681192699426e-02  1.6070847470656714e-02  1.7305510762960781e-02  1.8349384725783305e-02  1.9182327701551215e-02  1.9787433201867880e-02  2.0151995362535088e-02  2.0268260336405403e-02  2.0133893560881352e-02  1.9752119187738178e-02  1.9131518933338615e-02  1.8285509882620409e-02  1.7231550897892325e-02  1.5990152060438845e-02  1.4583778488219739e-02  1.3035747348218029e-02  1.1369214423121410e-02  9.6063347796317925e-03  7.7676624257910229e-03  5.8718285049259369e-03  3.9355090321853111e-03  1.9736638174753843e-03  0.0000000000000000e+00  0.0000000000000000e+00  2.4630856747473156e-03  4.9088820788464041e-03  7.3205001369432551e-03  9.6793389527445473e-03  1.1964540009568985e-02  1.4152740984265107e-02  1.6218177381366859e-02  1.8133147193966456e-02  1.9868817998153935e-02  2.1396320781466402e-02  2.2688044051657023e-02  2.3719018734263297e-02  2.4468271735941502e-02  2.4920025503790754e-02  2.5064632858343820e-02  2.4899159837913475e-02  2.4427561945504501e-02  2.3660437619688918e-02  2.2614382843755214e-02  2.1311008257375592e-02  1.9775710977192620e-02  1.8036314420623832e-02  1.6121698783400185e-02  1.4060541815067037e-02  1.1880274873408609e-02  9.6063347796317960e-03  7.2617604489902329e-03  4.8671478140824322e-03  2.4409404759724220e-03  0.0000000000000000e+00  0.0000000000000000e+00  2.9130898740848065e-03  5.8059410373246323e-03  8.6585966290959899e-03  1.1449079972294178e-02  1.4152740984265100e-02  1.6741957034745080e-02  1.9186246904519963e-02  2.1452816603823487e-02  2.3507512967231942e-02  2.5316119119562348e-02  2.6845889302714636e-02  2.8067193095857989e-02  2.8955123933957504e-02  2.9490926040672921e-02  2.9663107951727927e-02  2.9468138571855682e-02  2.8910660445296693e-02  2.8003200575754096e-02  2.6765406817140409e-02  2.5222882444521363e-02  2.3405728276869979e-02  2.1346926900387423e-02  1.9080714763969078e-02  1.6641084422014982e-02  1.4060541815067032e-02  1.1369214423121407e-02  8.5943686487540676e-03  5.7603527422251414e-03  2.8889390203721273e-03  0.0000000000000000e+00  0.0000000000000000e+00  3.3376845471820662e-03  6.6524027467244210e-03  9.9213301458507906e-03  1.3119326191249898e-02  1.6218177381366852e-02  1.9186246904519970e-02  2.1988599261708971e-02  2.4587622212706620e-02  2.6944118892435406e-02  2.9018794680124513e-02  3.0774021149813875e-02  3.2175727680987407e-02  3.3195253724050230e-02  3.3810993625464761e-02  3.4009681935122840e-02  3.3787198955254484e-02  3.3148820814655429e-02  3.2108890910089290e-02  3.0689944516562647e-02  2.8921369813891356e-02  2.6837731043772434e-02  2.4476908647679620e-02  2.1878224291724035e-02  1.9080714763969064e-02  1.6121698783400175e-02  1.3035747348218012e-02  9.8541251390317219e-03  6.6047221605761482e-03  3.3124459665651012e-03  0.0000000000000000e+00  0.0000000000000000e+00  3.7311740588053133e-03  7.4369167866060971e-03  1.1091770185176956e-02  1.4667681192699421e-02  1.8133147193966449e-02  2.1452816603823487e-02  2.4587622212706620e-02  2.7495473113088149e-02  3.0132475369919923e-02  3.2454597293551934e-02  3.4419647582885744e-02  3.5989398771117079e-02  3.7131668448155193e-02  3.7822169290701244e-02  3.8045956721986809e-02  3.7798338630249576e-02  3.7085161503308733e-02  3.5922446368701934e-02  3.4335409735550278e-02  3.2356962654960603e-02  3.0025828887796958e-02  2.7384456076489681e-02  2.4476908647679631e-02  2.1346926900387413e-02  1.8036314420623808e-02  1.4583778488219718e-02  1.1024299749098871e-02  7.3890531702307744e-03  3.7058474810434880e-03  0.0000000000000000e+00  0.0000000000000000e+00  4.0876405617169126e-03  8.1476861988345594e-03  1.2152313365158511e-02  1.6070847470656714e-02  1.9868817998153921e-02  2.3507512967231938e-02  2.6944118892435413e-02  3.0132475369919920e-02  3.3024412172566395e-02  3.5571576900162188e-02  3.7727608720997660e-02  3.9450474108275492e-02  4.0704758272900932e-02  4.1463704155437250e-02  4.1710810190069690e-02  4.1440837064986580e-02  4.0660128555578476e-02  3.9386216469280075e-02  3.7646747844945407e-02  3.5477836447818531e-02  3.2921993484275616e-02  3.0025828887797010e-02  2.6837731043772489e-02  2.3405728276870003e-02  1.9775710977192631e-02  1.5990152060438856e-02  1.2087410222291971e-02  8.1016407320926541e-03  4.0632781594555833e-03  0.0000000000000000e+00  0.0000000000000000e+00  4.4011696058472820e-03  8.7729164265337237e-03  1.3085352311934317e-02  1.7305510762960771e-02  2.1396320781466392e-02  2.5316119119562351e-02  2.9018794680124537e-02  3.2454597293551955e-02  3.5571576900162195e-02  3.8317554423013732e-02  4.0642468705769839e-02  4.2500900830130195e-02  4.3854552863483630e-02  4.4674455822884276e-02  4.4942702307661002e-02  4.4653541235564677e-02  4.3813731313245792e-02  4.2442120099926581e-02  4.0568489246377126e-02  3.8231775747795765e-02  3.5477836447818586e-02  3.2356962654960714e-02  2.8921369813891450e-02  2.5222882444521425e-02  2.1311008257375631e-02  1.7231550897892363e-02  1.3025853229431849e-02  8.7306984697053582e-03  4.3788311720273435e-03  0.0000000000000000e+00  0.0000000000000000e+00  4.6661153299811606e-03  9.3013438804257862e-03  1.3874064537754006e-02  1.8349384725783291e-02  2.2688044051657016e-02  2.6845889302714650e-02  3.0774021149813903e-02  3.4419647582885758e-02  3.7727608720997681e-02  4.0642468705769846e-02  4.3111009696014300e-02  4.5084916945750647e-02  4.6523417855018144e-02  4.7395635177131322e-02  4.7682436279756275e-02  4.7377604812684694e-02  4.6488223997845073e-02  4.5034235466656830e-02  4.3047216105881893e-02  4.0568489246377189e-02  3.7646747844945504e-02  3.4335409735550423e-02  3.0689944516562793e-02  2.6765406817140500e-02  2.2614382843755280e-02  1.8285509882620461e-02  1.3822667215875495e-02  9.2648681275653375e-03  4.6468130668880026e-03  0.0000000000000000e+00  0.0000000000000000e+00  4.8773830448530734e-03  9.7227997484724341e-03  1.4503254838139606e-02  1.9182327701551188e-02  2.3719018734263266e-02  2.8067193095857972e-02  3.2175727680987420e-02  3.5989398771117100e-02  3.9450474108275506e-02  4.2500900830130188e-02  4.5084916945750640e-02  4.7151865547969914e-02  4.8658963319958157e-02  4.9573771747639959e-02  4.9876141921358884e-02  4.9559450183051384e-02  4.8631007638868712e-02  4.7111604853687504e-02  4.5034235466656802e-02  4.2442120099926622e-02  3.9386216469280172e-02  3.5922446368702093e-02  3.2108890910089442e-02  2.8003200575754186e-02  2.3660437619688966e-02  1.9131518933338663e-02  1.4462363323274151e-02  9.6937749781323898e-03  4.8620218039256910e-03  0.0000000000000000e+00  0.0000000000000000e+00  5.0307044163112481e-03  1.0028759522251665e-02  1.4960177098308040e-02  1.9787433201867849e-02  2.4468271735941450e-02  2.8955123933957466e-02  3.3195253724050265e-02  3.7131668448155249e-02  4.0704758272900952e-02  4.3854552863483595e-02  4.6523417855018130e-02  4.8658963319958150e-02  5.0216907575439500e-02  5.1163636106845337e-02  5.1478218309958960e-02  5.1153692442653949e-02  5.0197497002147623e-02  4.8631007638868670e-02  4.6488223997844996e-02  4.3813731313245792e-02  4.0660128555578559e-02  3.7085161503308886e-02  3.3148820814655547e-02  2.8910660445296769e-02  2.4427561945504554e-02  1.9752119187738216e-02  1.4931751760086773e-02  1.0008580591728688e-02  5.0200236774429752e-03  0.0000000000000000e+00  0.0000000000000000e+00  5.1228803929276347e-03  1.0212828571645819e-02  1.5235261163833473e-02  2.0151995362535046e-02  2.4920025503790702e-02  2.9490926040672896e-02  3.3810993625464775e-02  3.7822169290701257e-02  4.1463704155437257e-02  4.4674455822884242e-02  4.7395635177131287e-02  4.9573771747639932e-02  5.1163636106845337e-02  5.2130853813543890e-02  5.2453968484944574e-02  5.2125759951609806e-02  5.1153692442653872e-02  4.9559450183051301e-02  4.7377604812684604e-02  4.4653541235564677e-02  4.1440837064986656e-02  3.7798338630249707e-02  3.3787198955254595e-02  2.9468138571855759e-02  2.4899159837913524e-02  2.0133893560881393e-02  1.5220689127772434e-02  1.0202483132994851e-02  5.1174041573672857e-03  0.0000000000000000e+00  0.0000000000000000e+00  5.1519695245493286e-03  1.0271119061708748e-02  1.5322677801999958e-02  2.0268260336405344e-02  2.5064632858343747e-02  2.9663107951727889e-02  3.4009681935122819e-02  3.8045956721986796e-02  4.1710810190069628e-02  4.4942702307660939e-02  4.7682436279756192e-02  4.9876141921358814e-02  5.1478218309958898e-02  5.2453968484944540e-02  5.2781681867920989e-02  5.2453968484944546e-02  5.1478218309958898e-02  4.9876141921358794e-02  4.7682436279756220e-02  4.4942702307661002e-02  4.1710810190069739e-02  3.8045956721986948e-02  3.4009681935122937e-02  2.9663107951728003e-02  2.5064632858343865e-02  2.0268260336405435e-02  1.5322677802000030e-02  1.0271119061708800e-02  5.1519695245493538e-03  0.0000000000000000e+00  0.0000000000000000e+00  5.1174041573672589e-03  1.0202483132994803e-02  1.5220689127772361e-02  2.0133893560881300e-02  2.4899159837913416e-02  2.9468138571855637e-02  3.3787198955254436e-02  3.7798338630249520e-02  4.1440837064986510e-02  4.4653541235564566e-02  4.7377604812684548e-02  4.9559450183051273e-02  5.1153692442653810e-02  5.2125759951609715e-02  5.2453968484944519e-02  5.2130853813543869e-02  5.1163636106845288e-02  4.9573771747639869e-02  4.7395635177131239e-02  4.4674455822884256e-02  4.1463704155437299e-02  3.7822169290701368e-02  3.3810993625464879e-02  2.9490926040672993e-02  2.4920025503790806e-02  2.0151995362535133e-02  1.5235261163833540e-02  1.0212828571645870e-02  5.1228803929276564e-03  0.0000000000000000e+00  0.0000000000000000e+00  5.0200236774429457e-03  1.0008580591728636e-02  1.4931751760086697e-02  1.9752119187738115e-02  2.4427561945504436e-02  2.8910660445296645e-02  3.3148820814655380e-02  3.7085161503308678e-02  4.0660128555578372e-02  4.3813731313245646e-02  4.6488223997844913e-02  4.8631007638868601e-02  5.0197497002147470e-02  5.1153692442653748e-02  5.1478218309958822e-02  5.1163636106845246e-02  5.0216907575439403e-02  4.8658963319958053e-02  4.6523417855018068e-02  4.3854552863483602e-02  4.0704758272900952e-02  3.7131668448155297e-02  3.3195253724050335e-02  2.8955123933957570e-02  2.4468271735941554e-02  1.9787433201867932e-02  1.4960177098308106e-02  1.0028759522251707e-02  5.0307044163112671e-03  0.0000000000000000e+00  0.0000000000000000e+00  4.8620218039256598e-03  9.6937749781323343e-03  1.4462363323274070e-02  1.9131518933338566e-02  2.3660437619688862e-02  2.8003200575754054e-02  3.2108890910089241e-02  3.5922446368701864e-02  3.9386216469279964e-02  4.2442120099926456e-02  4.5034235466656691e-02  4.7111604853687372e-02  4.8631007638868545e-02  4.9559450183051190e-02  4.9876141921358703e-02  4.9573771747639814e-02  4.8658963319958018e-02  4.7151865547969823e-02  4.5084916945750564e-02  4.2500900830130174e-02  3.9450474108275527e-02  3.5989398771117176e-02  3.2175727680987504e-02  2.8067193095858055e-02  2.3719018734263346e-02  1.9182327701551250e-02  1.4503254838139653e-02  9.7227997484724670e-03  4.8773830448530899e-03  0.0000000000000000e+00  0.0000000000000000e+00  4.6468130668879757e-03  9.2648681275652872e-03  1.3822667215875420e-02  1.8285509882620378e-02  2.2614382843755179e-02  2.6765406817140368e-02  3.0689944516562605e-02  3.4335409735550208e-02  3.7646747844945309e-02  4.0568489246377015e-02  4.3047216105881754e-02  4.5034235466656670e-02  4.6488223997844844e-02  4.7377604812684465e-02  4.7682436279756088e-02  4.7395635177131169e-02  4.6523417855018012e-02  4.5084916945750529e-02  4.3111009696014217e-02  4.0642468705769819e-02  3.7727608720997702e-02  3.4419647582885848e-02  3.0774021149813993e-02  2.6845889302714730e-02  2.2688044051657089e-02  1.8349384725783346e-02  1.3874064537754039e-02  9.3013438804258105e-03  4.6661153299811745e-03  0.0000000000000000e+00  0.0000000000000000e+00  4.3788311720273218e-03  8.7306984697053183e-03  1.3025853229431795e-02  1.7231550897892290e-02  2.1311008257375551e-02  2.5222882444521321e-02  2.8921369813891300e-02  3.2356962654960526e-02  3.5477836447818413e-02  3.8231775747795634e-02  4.0568489246377036e-02  4.2442120099926470e-02  4.3813731313245632e-02  4.4653541235564517e-02  4.4942702307660863e-02  4.4674455822884152e-02  4.3854552863483498e-02  4.2500900830130091e-02  4.0642468705769770e-02  3.8317554423013739e-02  3.5571576900162237e-02  3.2454597293552080e-02  2.9018794680124648e-02  2.5316119119562431e-02  2.1396320781466464e-02  1.7305510762960826e-02  1.3085352311934353e-02  8.7729164265337480e-03  4.4011696058472959e-03  0.0000000000000000e+00  0.0000000000000000e+00  4.0632781594555677e-03  8.1016407320926229e-03  1.2087410222291931e-02  1.5990152060438807e-02  1.9775710977192561e-02  2.3405728276869923e-02  2.6837731043772382e-02  3.0025828887796879e-02  3.2921993484275484e-02  3.5477836447818420e-02  3.7646747844945344e-02  3.9386216469280012e-02  4.0660128555578379e-02  4.1440837064986503e-02  4.1710810190069600e-02  4.1463704155437167e-02  4.0704758272900841e-02  3.9450474108275416e-02  3.7727608720997625e-02  3.5571576900162216e-02  3.3024412172566471e-02  3.0132475369920038e-02  2.6944118892435521e-02  2.3507512967232025e-02  1.9868817998154004e-02  1.6070847470656770e-02  1.2152313365158554e-02  8.1476861988345819e-03  4.0876405617169265e-03  0.0000000000000000e+00  0.0000000000000000e+00  3.7058474810434771e-03  7.3890531702307527e-03  1.1024299749098842e-02  1.4583778488219686e-02  1.8036314420623773e-02  2.1346926900387354e-02  2.4476908647679530e-02  2.7384456076489563e-02  3.0025828887796861e-02  3.2356962654960547e-02  3.4335409735550250e-02  3.5922446368701920e-02  3.7085161503308706e-02  3.7798338630249534e-02  3.8045956721986782e-02  3.7822169290701216e-02  3.7131668448155158e-02  3.5989398771117051e-02  3.4419647582885723e-02  3.2454597293551983e-02  3.0132475369919996e-02  2.7495473113088253e-02  2.4587622212706710e-02  2.1452816603823550e-02  1.8133147193966512e-02  1.4667681192699476e-02  1.1091770185176996e-02  7.4369167866061257e-03  3.7311740588053277e-03  0.0000000000000000e+00  0.0000000000000000e+00  3.3124459665650886e-03  6.6047221605761266e-03  9.8541251390316942e-03  1.3035747348217970e-02  1.6121698783400119e-02  1.9080714763969005e-02  2.1878224291723942e-02  2.4476908647679502e-02  2.6837731043772333e-02  2.8921369813891297e-02  3.0689944516562637e-02  3.2108890910089276e-02  3.3148820814655366e-02  3.3787198955254429e-02  3.4009681935122799e-02  3.3810993625464747e-02  3.3195253724050217e-02  3.2175727680987365e-02  3.0774021149813865e-02  2.9018794680124537e-02  2.6944118892435451e-02  2.4587622212706699e-02  2.1988599261709030e-02  1.9186246904520008e-02  1.6218177381366890e-02  1.3119326191249938e-02  9.9213301458508200e-03  6.6524027467244427e-03  3.3376845471820766e-03  0.0000000000000000e+00  0.0000000000000000e+00  2.8889390203721147e-03  5.7603527422251189e-03  8.5943686487540347e-03  1.1369214423121365e-02  1.4060541815066982e-02  1.6641084422014920e-02  1.9080714763968984e-02  2.1346926900387312e-02  2.3405728276869885e-02  2.5222882444521300e-02  2.6765406817140371e-02  2.8003200575754065e-02  2.8910660445296638e-02  2.9468138571855627e-02  2.9663107951727892e-02  2.9490926040672886e-02  2.8955123933957477e-02  2.8067193095857951e-02  2.6845889302714622e-02  2.5316119119562358e-02  2.3507512967231973e-02  2.1452816603823546e-02  1.9186246904520015e-02  1.6741957034745115e-02  1.4152740984265133e-02  1.1449079972294210e-02  8.6585966290960142e-03  5.8059410373246497e-03  2.9130898740848147e-03  0.0000000000000000e+00  0.0000000000000000e+00  2.4409404759724103e-03  4.8671478140824113e-03  7.2617604489902034e-03  9.6063347796317578e-03  1.1880274873408566e-02  1.4060541815066987e-02  1.6121698783400116e-02  1.8036314420623738e-02  1.9775710977192548e-02  2.1311008257375540e-02  2.2614382843755186e-02  2.3660437619688880e-02  2.4427561945504456e-02  2.4899159837913420e-02  2.5064632858343802e-02  2.4920025503790726e-02  2.4468271735941474e-02  2.3719018734263263e-02  2.2688044051657009e-02  2.1396320781466405e-02  1.9868817998153973e-02  1.8133147193966501e-02  1.6218177381366893e-02  1.4152740984265130e-02  1.1964540009569010e-02  9.6793389527445681e-03  7.3205001369432707e-03  4.9088820788464162e-03  2.4630856747473221e-03  0.0000000000000000e+00  0.0000000000000000e+00  1.9736638174753757e-03  3.9355090321852955e-03  5.8718285049259161e-03  7.7676624257909960e-03  9.6063347796317613e-03  1.1369214423121374e-02  1.3035747348217972e-02  1.4583778488219668e-02  1.5990152060438797e-02  1.7231550897892293e-02  1.8285509882620388e-02  1.9131518933338591e-02  1.9752119187738136e-02  2.0133893560881317e-02  2.0268260336405372e-02  2.0151995362535063e-02  1.9787433201867859e-02  1.9182327701551184e-02  1.8349384725783291e-02  1.7305510762960788e-02  1.6070847470656749e-02  1.4667681192699471e-02  1.3119326191249942e